[Molden Format]
[FREQ]
    0.00
    0.00
    0.00
   40.75
   41.23
   56.20
   56.29
   90.28
   90.46
  100.03
  100.04
  101.97
  102.58
  102.60
  110.01
  111.73
  111.78
  113.69
  116.25
  116.25
  122.97
  122.97
  124.15
  124.16
  129.57
  130.90
  130.91
  135.95
  135.98
  137.50
  137.51
  137.54
  137.66
  145.59
  145.60
  146.86
  146.88
  153.89
  157.05
  170.73
  170.73
  175.45
  175.48
  183.90
  183.92
  184.64
  193.56
  193.63
  204.31
  204.31
  204.35
  246.44
  246.53
  260.34
  260.37
  263.13
  269.56
  269.66
  281.21
  281.25
  296.51
  296.52
  296.55
  298.38
  307.01
  307.02
  310.95
  311.05
  323.88
  323.88
  325.55
  325.59
  332.36
  332.40
  334.44
  334.48
  343.21
  343.24
  434.95
  436.33
  436.38
  436.50
  442.62
  442.68
  465.84
  468.51
  468.52
  477.80
  477.81
  478.33
  478.38
  483.18
  483.18
  485.69
  485.71
  487.92
  509.00
  521.58
  521.82
  521.84
  523.57
  523.61
  525.40
  525.41
  539.16
  539.18
  541.68
  543.65
  543.65
  545.06
  546.37
  546.40
  551.99
  769.26
  769.28
  769.49
  816.41
  817.89
  817.90
  851.01
[FR-COORD]
   Sr         14.60928        0.11467        0.11882
   Sr          0.11409       14.60872       14.75611
   Sr          0.11555       14.60840        0.11882
   Sr         14.60782        0.11501       14.75611
   Sr         14.60836       14.60926        0.11844
   Sr          0.11501        0.11412       14.75650
   Sr          0.11468        0.11559        0.11921
   Sr         14.60869       14.60782       14.75573
   Ti         21.85398       21.85442       22.07572
   Ti         21.85497       21.85457        7.43842
   Ti         21.85457        7.36129        7.43880
   Ti         21.85442        7.36030       22.07609
   Ti          7.36030        7.36074       22.07648
   Ti          7.36128        7.36088        7.43919
   Ti          7.36085       21.85501        7.43881
   Ti          7.36069       21.85402       22.07611
   O          20.97178        0.11619        7.43850
   O          22.74253       14.60987        7.42705
   O          14.60990       20.97175        7.43811
   O           0.11617       22.74254        7.42742
   O          14.60931       22.74195       22.06432
   O           0.11563       20.97120       22.07578
   O          22.74199        0.11560       22.06473
   O          20.97119       14.60933       22.07540
   O          14.60936        6.47748       22.07579
   O           0.11564        8.24827       22.06513
   O          14.60990        8.24882        7.42746
   O           0.11622        6.47806        7.43889
   O           6.47805       14.60991        7.43849
   O           8.24885        0.11618        7.42783
   O           8.24826       14.60932       22.06473
   O           6.47751        0.11564       22.07617
   O          21.85136       21.86304        0.11434
   O          21.86249       21.85080       14.75163
   O          21.85085        7.36877       14.75202
   O          21.86308        7.35766        0.11473
   O           7.35771        7.36935        0.11512
   O           7.36881        7.35712       14.75241
   O           7.35709       21.86249       14.75202
   O           7.36935       21.85139        0.11472
[FR-NORM-COORD]
 vibration     1
   0.00307   0.01011   0.15776
   0.00307   0.01011   0.15776
   0.00307   0.01011   0.15776
   0.00307   0.01011   0.15776
   0.00307   0.01011   0.15776
   0.00307   0.01011   0.15776
   0.00307   0.01011   0.15776
   0.00307   0.01011   0.15776
   0.00307   0.01011   0.15776
   0.00307   0.01011   0.15776
   0.00307   0.01011   0.15776
   0.00307   0.01011   0.15776
   0.00307   0.01011   0.15776
   0.00307   0.01011   0.15776
   0.00307   0.01011   0.15776
   0.00307   0.01011   0.15776
   0.00307   0.01011   0.15776
   0.00307   0.01011   0.15776
   0.00307   0.01011   0.15776
   0.00307   0.01011   0.15776
   0.00307   0.01011   0.15776
   0.00307   0.01011   0.15776
   0.00307   0.01011   0.15776
   0.00307   0.01011   0.15776
   0.00307   0.01011   0.15776
   0.00307   0.01011   0.15776
   0.00307   0.01011   0.15776
   0.00307   0.01011   0.15776
   0.00307   0.01011   0.15776
   0.00307   0.01011   0.15776
   0.00307   0.01011   0.15776
   0.00307   0.01011   0.15776
   0.00307   0.01011   0.15776
   0.00307   0.01011   0.15776
   0.00307   0.01011   0.15776
   0.00307   0.01011   0.15776
   0.00307   0.01011   0.15776
   0.00307   0.01011   0.15776
   0.00307   0.01011   0.15776
   0.00307   0.01011   0.15776
 vibration     2
   0.15705  -0.01819  -0.00189
   0.15705  -0.01819  -0.00189
   0.15705  -0.01819  -0.00189
   0.15705  -0.01819  -0.00189
   0.15705  -0.01819  -0.00189
   0.15705  -0.01819  -0.00189
   0.15705  -0.01819  -0.00189
   0.15705  -0.01819  -0.00189
   0.15705  -0.01819  -0.00189
   0.15705  -0.01819  -0.00189
   0.15705  -0.01819  -0.00189
   0.15705  -0.01819  -0.00189
   0.15705  -0.01819  -0.00189
   0.15705  -0.01819  -0.00189
   0.15705  -0.01819  -0.00189
   0.15705  -0.01819  -0.00189
   0.15705  -0.01819  -0.00189
   0.15705  -0.01819  -0.00189
   0.15705  -0.01819  -0.00189
   0.15705  -0.01819  -0.00189
   0.15705  -0.01819  -0.00189
   0.15705  -0.01819  -0.00189
   0.15705  -0.01819  -0.00189
   0.15705  -0.01819  -0.00189
   0.15705  -0.01819  -0.00189
   0.15705  -0.01819  -0.00189
   0.15705  -0.01819  -0.00189
   0.15705  -0.01819  -0.00189
   0.15705  -0.01819  -0.00189
   0.15705  -0.01819  -0.00189
   0.15705  -0.01819  -0.00189
   0.15705  -0.01819  -0.00189
   0.15705  -0.01819  -0.00189
   0.15705  -0.01819  -0.00189
   0.15705  -0.01819  -0.00189
   0.15705  -0.01819  -0.00189
   0.15705  -0.01819  -0.00189
   0.15705  -0.01819  -0.00189
   0.15705  -0.01819  -0.00189
   0.15705  -0.01819  -0.00189
 vibration     3
   0.01803   0.15674  -0.01040
   0.01803   0.15674  -0.01040
   0.01803   0.15674  -0.01040
   0.01803   0.15674  -0.01040
   0.01803   0.15674  -0.01040
   0.01803   0.15674  -0.01040
   0.01803   0.15674  -0.01040
   0.01803   0.15674  -0.01040
   0.01803   0.15674  -0.01040
   0.01803   0.15674  -0.01040
   0.01803   0.15674  -0.01040
   0.01803   0.15674  -0.01040
   0.01803   0.15674  -0.01040
   0.01803   0.15674  -0.01040
   0.01803   0.15674  -0.01040
   0.01803   0.15674  -0.01040
   0.01803   0.15674  -0.01040
   0.01803   0.15674  -0.01040
   0.01803   0.15674  -0.01040
   0.01803   0.15674  -0.01040
   0.01803   0.15674  -0.01040
   0.01803   0.15674  -0.01040
   0.01803   0.15674  -0.01040
   0.01803   0.15674  -0.01040
   0.01803   0.15674  -0.01040
   0.01803   0.15674  -0.01040
   0.01803   0.15674  -0.01040
   0.01803   0.15674  -0.01040
   0.01803   0.15674  -0.01040
   0.01803   0.15674  -0.01040
   0.01803   0.15674  -0.01040
   0.01803   0.15674  -0.01040
   0.01803   0.15674  -0.01040
   0.01803   0.15674  -0.01040
   0.01803   0.15674  -0.01040
   0.01803   0.15674  -0.01040
   0.01803   0.15674  -0.01040
   0.01803   0.15674  -0.01040
   0.01803   0.15674  -0.01040
   0.01803   0.15674  -0.01040
 vibration     4
   0.02168  -0.01562  -0.00000
  -0.02107   0.01603  -0.00027
   0.02168  -0.01563  -0.00038
  -0.02107   0.01603   0.00011
  -0.02107   0.01603   0.00003
   0.02167  -0.01562  -0.00030
  -0.02106   0.01603  -0.00019
   0.02168  -0.01562  -0.00008
   0.00026   0.00020  -0.00021
   0.00030   0.00016  -0.00023
   0.00026   0.00020  -0.00021
   0.00030   0.00016  -0.00023
   0.00026   0.00020  -0.00021
   0.00030   0.00016  -0.00023
   0.00026   0.00020  -0.00021
   0.00030   0.00016  -0.00023
   0.00110  -0.00051   0.19425
  -0.00322  -0.00047  -0.19318
  -0.00075   0.00137   0.14341
  -0.00072  -0.00287  -0.14245
  -0.00072  -0.00287  -0.14251
  -0.00075   0.00137   0.14347
  -0.00323  -0.00047  -0.19320
   0.00110  -0.00051   0.19427
  -0.00075   0.00137   0.14366
  -0.00072  -0.00287  -0.14270
  -0.00072  -0.00287  -0.14275
  -0.00075   0.00137   0.14371
   0.00110  -0.00051   0.19337
  -0.00322  -0.00047  -0.19231
  -0.00322  -0.00047  -0.19229
   0.00110  -0.00051   0.19335
  -0.15401   0.20722   0.00039
   0.15258  -0.20803   0.00040
  -0.15425   0.20722   0.00039
   0.15283  -0.20803   0.00039
  -0.15424   0.20631   0.00039
   0.15282  -0.20714   0.00039
  -0.15397   0.20627   0.00039
   0.15254  -0.20709   0.00039
 vibration     5
  -0.01616  -0.02105   0.00029
   0.01555   0.02180  -0.00033
  -0.01616  -0.02104   0.00041
   0.01556   0.02180  -0.00045
   0.01556   0.02180  -0.00055
  -0.01616  -0.02104   0.00051
   0.01556   0.02180  -0.00023
  -0.01616  -0.02105   0.00019
  -0.00031   0.00040  -0.00011
  -0.00032   0.00037   0.00005
  -0.00031   0.00040  -0.00011
  -0.00033   0.00037   0.00005
  -0.00031   0.00040  -0.00011
  -0.00033   0.00037   0.00005
  -0.00031   0.00040  -0.00011
  -0.00033   0.00037   0.00005
   0.00110  -0.00092  -0.14357
   0.00074  -0.00092   0.14338
   0.00072  -0.00073   0.19339
   0.00073  -0.00165  -0.19291
   0.00074  -0.00165  -0.19288
   0.00072  -0.00073   0.19336
   0.00073  -0.00092   0.14337
   0.00110  -0.00092  -0.14356
   0.00073  -0.00073   0.19370
   0.00074  -0.00165  -0.19322
   0.00074  -0.00164  -0.19319
   0.00073  -0.00073   0.19367
   0.00110  -0.00091  -0.14289
   0.00073  -0.00091   0.14270
   0.00073  -0.00091   0.14272
   0.00110  -0.00091  -0.14290
  -0.20608  -0.15482   0.00007
   0.20796   0.15259   0.00004
  -0.20638  -0.15482   0.00007
   0.20828   0.15259   0.00004
  -0.20636  -0.15414   0.00007
   0.20827   0.15193   0.00004
  -0.20602  -0.15412   0.00007
   0.20790   0.15189   0.00004
 vibration     6
  -0.00037   0.00116   0.08919
   0.00069  -0.00096  -0.08821
   0.00020  -0.00115  -0.08919
  -0.00053   0.00095   0.08820
  -0.00054   0.00095   0.08824
   0.00020  -0.00116  -0.08923
   0.00069  -0.00095  -0.08824
  -0.00036   0.00115   0.08923
  -0.00003   0.00028   0.00018
   0.00001  -0.00026  -0.00003
  -0.00003   0.00028   0.00018
   0.00001  -0.00026  -0.00003
   0.00002  -0.00028  -0.00018
  -0.00001   0.00026   0.00002
   0.00002  -0.00029  -0.00018
  -0.00001   0.00026   0.00003
   0.00006   0.00009   0.24098
  -0.00021   0.00008  -0.24036
   0.00004  -0.00015  -0.01266
   0.00000   0.00037   0.01246
   0.00001  -0.00035  -0.01257
  -0.00003   0.00015   0.01277
  -0.00021   0.00008  -0.24036
   0.00006   0.00009   0.24099
   0.00004  -0.00015  -0.01277
   0.00000   0.00037   0.01257
   0.00001  -0.00035  -0.01247
  -0.00003   0.00015   0.01267
  -0.00006  -0.00009  -0.24237
   0.00022  -0.00008   0.24175
   0.00023  -0.00008   0.24174
  -0.00006  -0.00009  -0.24235
  -0.00009   0.24183   0.00016
   0.00019  -0.24132   0.00009
   0.00001   0.24183   0.00016
   0.00009  -0.24133   0.00009
   0.00010  -0.24330  -0.00015
  -0.00018   0.24282  -0.00009
  -0.00001  -0.24326  -0.00015
  -0.00008   0.24275  -0.00009
 vibration     7
  -0.00095   0.00058  -0.08830
   0.00115  -0.00025   0.08929
   0.00096  -0.00064   0.08830
  -0.00116   0.00032  -0.08929
   0.00116  -0.00026   0.08925
  -0.00095   0.00059  -0.08826
  -0.00115   0.00031  -0.08925
   0.00095  -0.00064   0.08826
  -0.00025   0.00001  -0.00003
   0.00029  -0.00002   0.00018
   0.00026  -0.00001   0.00003
  -0.00028   0.00003  -0.00018
   0.00026  -0.00001   0.00003
  -0.00028   0.00003  -0.00018
  -0.00026   0.00001  -0.00003
   0.00029  -0.00002   0.00018
   0.00015  -0.00004   0.01268
  -0.00037   0.00000  -0.01248
   0.00009   0.00006   0.24191
   0.00008  -0.00022  -0.24127
   0.00008  -0.00022  -0.24128
   0.00009   0.00006   0.24191
   0.00035  -0.00001   0.01257
  -0.00015   0.00003  -0.01276
  -0.00010  -0.00006  -0.24139
  -0.00009   0.00021   0.24078
  -0.00009   0.00021   0.24079
  -0.00010  -0.00006  -0.24140
  -0.00015   0.00003  -0.01266
   0.00035  -0.00001   0.01246
  -0.00037   0.00000  -0.01258
   0.00015  -0.00003   0.01278
  -0.24236   0.00009   0.00009
   0.24284  -0.00001   0.00016
   0.24180  -0.00018  -0.00009
  -0.24232   0.00008  -0.00015
   0.24177  -0.00008  -0.00009
  -0.24230  -0.00002  -0.00015
  -0.24229   0.00019   0.00009
   0.24277  -0.00011   0.00016
 vibration     8
  -0.03417   0.04123   0.00011
  -0.03514   0.04012   0.00005
  -0.03418   0.04124   0.00007
  -0.03514   0.04012   0.00001
  -0.03515   0.04024   0.00007
  -0.03418   0.04136   0.00013
  -0.03514   0.04024  -0.00001
  -0.03418   0.04136   0.00006
  -0.04119   0.08924  -0.00008
  -0.08175   0.05460   0.00040
  -0.04135   0.08927  -0.00008
  -0.08163   0.05462   0.00040
  -0.04088   0.09000  -0.00008
  -0.08218   0.05536   0.00040
  -0.04117   0.09006  -0.00008
  -0.08207   0.05533   0.00040
   0.12262  -0.12845   0.00129
   0.12251  -0.12847  -0.00112
   0.10923  -0.14363  -0.00200
   0.10925  -0.14419   0.00067
   0.10925  -0.14437   0.00067
   0.10923  -0.14378  -0.00200
   0.12250  -0.12852  -0.00112
   0.12263  -0.12850   0.00129
   0.10927  -0.14375  -0.00200
   0.10929  -0.14433   0.00068
   0.10926  -0.14424   0.00068
   0.10923  -0.14368  -0.00200
   0.12254  -0.12831   0.00128
   0.12243  -0.12833  -0.00111
   0.12242  -0.12838  -0.00111
   0.12255  -0.12836   0.00128
   0.14395  -0.16591  -0.00024
   0.14076  -0.16875  -0.00024
   0.14398  -0.16589  -0.00024
   0.14077  -0.16874  -0.00024
   0.14387  -0.16580  -0.00024
   0.14067  -0.16864  -0.00024
   0.14380  -0.16578  -0.00024
   0.14061  -0.16861  -0.00024
 vibration     9
  -0.04029  -0.03529  -0.00073
  -0.04132  -0.03443  -0.00071
  -0.04029  -0.03529  -0.00080
  -0.04132  -0.03444  -0.00082
  -0.04134  -0.03415  -0.00070
  -0.04032  -0.03502  -0.00069
  -0.04135  -0.03416  -0.00084
  -0.04032  -0.03502  -0.00083
  -0.08934  -0.04073  -0.00207
  -0.05491  -0.08146  -0.00203
  -0.08957  -0.04074  -0.00207
  -0.05463  -0.08139  -0.00204
  -0.08915  -0.04130  -0.00210
  -0.05498  -0.08218  -0.00206
  -0.08980  -0.04139  -0.00210
  -0.05491  -0.08199  -0.00206
   0.14187   0.10937   0.00460
   0.14629   0.10936   0.00278
   0.12839   0.12052   0.00434
   0.12838   0.12490   0.00291
   0.12838   0.12459   0.00291
   0.12839   0.12022   0.00434
   0.14628   0.10925   0.00278
   0.14187   0.10926   0.00459
   0.12846   0.12021   0.00433
   0.12845   0.12458   0.00292
   0.12840   0.12481   0.00292
   0.12841   0.12043   0.00433
   0.14180   0.10923   0.00460
   0.14621   0.10922   0.00277
   0.14620   0.10914   0.00277
   0.14180   0.10915   0.00460
   0.16630   0.14352   0.00306
   0.16823   0.14113   0.00306
   0.16634   0.14354   0.00306
   0.16824   0.14114   0.00306
   0.16624   0.14340   0.00306
   0.16815   0.14100   0.00305
   0.16612   0.14339   0.00306
   0.16805   0.14098   0.00306
 vibration    10
   0.27876   0.01818  -0.00064
   0.27806   0.01823  -0.00011
  -0.27880  -0.01819   0.00109
  -0.27810  -0.01825   0.00055
  -0.27805   0.01793   0.00046
  -0.27875   0.01788   0.00107
   0.27806  -0.01791   0.00001
   0.27878  -0.01790  -0.00059
   0.00068  -0.00038  -0.04222
  -0.00056   0.00039  -0.04231
   0.00063  -0.00032  -0.03697
  -0.00052   0.00029  -0.03707
  -0.00072   0.00037   0.04482
   0.00055  -0.00042   0.04492
  -0.00068   0.00029   0.03943
   0.00050  -0.00035   0.03953
  -0.00034  -0.00077   0.19334
  -0.00069  -0.00075   0.19413
  -0.00018   0.00031   0.01091
  -0.00033   0.00024   0.01089
   0.00026  -0.00033   0.01095
   0.00012  -0.00025   0.01085
  -0.00062  -0.00079   0.19414
  -0.00028  -0.00080   0.19336
  -0.00007   0.00035  -0.01441
  -0.00021   0.00032  -0.01452
   0.00035  -0.00024  -0.01446
   0.00021  -0.00020  -0.01445
   0.00041   0.00083  -0.19692
   0.00064   0.00080  -0.19769
   0.00064   0.00083  -0.19768
   0.00040   0.00084  -0.19692
   0.00082  -0.00206   0.08785
   0.00049  -0.00138   0.08786
   0.00101  -0.00213   0.07697
   0.00076  -0.00150   0.07697
  -0.00077   0.00212  -0.09083
  -0.00042   0.00146  -0.09084
  -0.00097   0.00220  -0.07995
  -0.00069   0.00157  -0.07996
 vibration    11
   0.01793  -0.27813   0.00018
   0.01790  -0.27884   0.00078
  -0.01794   0.27814  -0.00027
  -0.01790   0.27886  -0.00087
  -0.01818  -0.27887   0.00084
  -0.01824  -0.27816   0.00032
   0.01819   0.27884  -0.00088
   0.01825   0.27815  -0.00035
  -0.00032   0.00051   0.03799
   0.00030  -0.00065   0.03790
   0.00041  -0.00056  -0.04362
  -0.00037   0.00070  -0.04353
   0.00032  -0.00052  -0.03863
  -0.00031   0.00066  -0.03854
  -0.00040   0.00056   0.04359
   0.00038  -0.00070   0.04349
   0.00025  -0.00020   0.01292
   0.00024  -0.00034   0.01291
   0.00079   0.00037  -0.19482
   0.00077   0.00067  -0.19559
   0.00081   0.00065  -0.19561
   0.00082   0.00035  -0.19484
  -0.00032   0.00024   0.01297
  -0.00031   0.00010   0.01288
  -0.00082  -0.00033   0.19530
  -0.00081  -0.00061   0.19605
  -0.00078  -0.00067   0.19607
  -0.00080  -0.00038   0.19531
  -0.00026   0.00020  -0.01244
  -0.00024   0.00034  -0.01245
   0.00033  -0.00023  -0.01249
   0.00030  -0.00009  -0.01238
   0.00153  -0.00072  -0.07826
   0.00216  -0.00099  -0.07825
  -0.00144   0.00046   0.08954
  -0.00208   0.00080   0.08953
  -0.00155   0.00073   0.07862
  -0.00216   0.00099   0.07861
   0.00142  -0.00044  -0.08910
   0.00208  -0.00080  -0.08909
 vibration    12
   0.00115   0.00103  -0.02595
   0.00174   0.00044  -0.02595
  -0.00077   0.00065  -0.02594
  -0.00018   0.00006  -0.02594
  -0.00014   0.00033  -0.02595
  -0.00073   0.00091  -0.02594
   0.00174  -0.00004  -0.02593
   0.00114   0.00055  -0.02595
   0.00212   0.00096  -0.13824
   0.00096   0.00214  -0.13824
   0.00216   0.00096  -0.13839
   0.00099   0.00212  -0.13840
   0.00211   0.00098  -0.14040
   0.00096   0.00216  -0.14042
   0.00217   0.00099  -0.14018
   0.00100   0.00214  -0.14016
  -0.00526  -0.00219   0.19708
   0.00099  -0.00218   0.19783
  -0.00218  -0.00529   0.19649
  -0.00216   0.00096   0.19723
  -0.00215   0.00108   0.19724
  -0.00217  -0.00520   0.19650
   0.00102  -0.00213   0.19784
  -0.00525  -0.00215   0.19709
  -0.00217  -0.00520   0.19625
  -0.00216   0.00108   0.19698
  -0.00216   0.00096   0.19699
  -0.00217  -0.00529   0.19625
  -0.00526  -0.00218   0.19576
   0.00100  -0.00217   0.19650
   0.00103  -0.00212   0.19650
  -0.00525  -0.00214   0.19577
  -0.00257  -0.00362   0.16603
  -0.00362  -0.00255   0.16603
  -0.00256  -0.00362   0.16591
  -0.00361  -0.00256   0.16591
  -0.00258  -0.00360   0.16515
  -0.00362  -0.00255   0.16515
  -0.00256  -0.00360   0.16526
  -0.00361  -0.00255   0.16526
 vibration    13
   0.22342  -0.06801  -0.00855
   0.22036  -0.06922   0.00689
   0.22340  -0.06802  -0.00861
   0.22033  -0.06920   0.00682
  -0.22028   0.06923  -0.00683
  -0.22335   0.06803   0.00861
  -0.22024   0.06923  -0.00691
  -0.22332   0.06805   0.00853
   0.05039  -0.07852   0.00007
   0.00277  -0.09317   0.00003
  -0.05020   0.07860  -0.00014
  -0.00274   0.09333  -0.00011
   0.05050  -0.07868   0.00007
   0.00300  -0.09338   0.00004
  -0.05048   0.07862  -0.00014
  -0.00283   0.09337  -0.00010
   0.19593   0.02730   0.00003
   0.24151   0.02705  -0.00082
   0.08779   0.04536   0.00044
   0.08762   0.09028   0.00017
  -0.08787  -0.09025  -0.00008
  -0.08805  -0.04532  -0.00034
  -0.24176  -0.02712   0.00094
  -0.19617  -0.02737   0.00009
  -0.08802  -0.04543  -0.00034
  -0.08785  -0.09036  -0.00007
   0.08765   0.09015   0.00018
   0.08783   0.04523   0.00044
   0.19597   0.02728   0.00001
   0.24155   0.02704  -0.00084
  -0.24181  -0.02712   0.00092
  -0.19621  -0.02737   0.00006
   0.00498  -0.01717   0.00007
   0.00538  -0.01701   0.00011
  -0.00525   0.01706   0.00002
  -0.00565   0.01692  -0.00002
   0.00499  -0.01728   0.00007
   0.00539  -0.01712   0.00010
  -0.00530   0.01717   0.00001
  -0.00569   0.01703  -0.00003
 vibration    14
  -0.06958  -0.22107  -0.00250
  -0.06890  -0.22398   0.00562
  -0.06956  -0.22105  -0.00239
  -0.06889  -0.22397   0.00574
   0.06908   0.22401  -0.00578
   0.06975   0.22110   0.00235
   0.06907   0.22403  -0.00563
   0.06973   0.22112   0.00250
   0.07860   0.05071  -0.00022
   0.09345   0.00300  -0.00024
  -0.07806  -0.05072   0.00009
  -0.09348  -0.00287   0.00011
   0.07885   0.05081  -0.00023
   0.09438   0.00301  -0.00024
  -0.07892  -0.05079   0.00009
  -0.09389  -0.00285   0.00011
  -0.08007   0.08799   0.00058
  -0.05688   0.08794   0.00085
  -0.02758   0.20700  -0.00022
  -0.02777   0.23144  -0.00107
   0.02719  -0.23170   0.00124
   0.02701  -0.20724   0.00039
   0.05636  -0.08810  -0.00068
   0.07957  -0.08814  -0.00041
   0.02707  -0.20713   0.00040
   0.02725  -0.23159   0.00125
  -0.02765   0.23151  -0.00106
  -0.02746   0.20706  -0.00021
  -0.08010   0.08798   0.00059
  -0.05691   0.08794   0.00086
   0.05634  -0.08806  -0.00066
   0.07955  -0.08811  -0.00040
   0.01680   0.00497  -0.00003
   0.01671   0.00535  -0.00001
  -0.01740  -0.00521   0.00017
  -0.01732  -0.00558   0.00016
   0.01685   0.00504  -0.00002
   0.01676   0.00542   0.00000
  -0.01750  -0.00519   0.00017
  -0.01741  -0.00556   0.00016
 vibration    15
   0.00584  -0.00265   0.30793
  -0.00269   0.00576   0.30794
   0.00582  -0.00262   0.30792
  -0.00271   0.00578   0.30793
   0.00269  -0.00579  -0.30793
  -0.00584   0.00262  -0.30793
   0.00271  -0.00575  -0.30793
  -0.00582   0.00264  -0.30793
  -0.00043  -0.00048   0.00000
  -0.00048  -0.00044   0.00001
   0.00043   0.00049  -0.00000
   0.00048   0.00043  -0.00002
  -0.00044  -0.00049  -0.00000
  -0.00049  -0.00044   0.00001
   0.00044   0.00048   0.00000
   0.00049   0.00044  -0.00001
   0.00074  -0.00029   0.12365
   0.00050  -0.00028   0.12188
   0.00029  -0.00075  -0.12361
   0.00028  -0.00049  -0.12188
  -0.00028   0.00049   0.12187
  -0.00029   0.00075   0.12361
  -0.00050   0.00028  -0.12189
  -0.00074   0.00029  -0.12364
  -0.00029   0.00075   0.12360
  -0.00028   0.00049   0.12187
   0.00028  -0.00049  -0.12186
   0.00029  -0.00075  -0.12359
   0.00074  -0.00029   0.12364
   0.00050  -0.00028   0.12189
  -0.00050   0.00028  -0.12189
  -0.00074   0.00029  -0.12365
  -0.00014   0.00047  -0.00000
   0.00048  -0.00013  -0.00000
   0.00014  -0.00047   0.00000
  -0.00047   0.00013   0.00000
  -0.00014   0.00047   0.00000
   0.00048  -0.00013  -0.00000
   0.00013  -0.00047  -0.00000
  -0.00047   0.00013  -0.00000
 vibration    16
  -0.23905  -0.24006   0.01411
   0.24484   0.23434  -0.01390
  -0.23906  -0.24007   0.01412
   0.24484   0.23435  -0.01390
  -0.24484  -0.23433   0.01390
   0.23905   0.24006  -0.01412
  -0.24483  -0.23435   0.01390
   0.23905   0.24006  -0.01411
   0.00017  -0.00144  -0.00001
   0.00145  -0.00020   0.00000
  -0.00017   0.00144   0.00000
  -0.00145   0.00020  -0.00000
   0.00018  -0.00145  -0.00000
   0.00146  -0.00020   0.00000
  -0.00018   0.00144   0.00000
  -0.00146   0.00019  -0.00001
   0.04041   0.00054  -0.05586
  -0.03794   0.00042   0.05602
   0.00054   0.04039  -0.05483
   0.00043  -0.03794   0.05481
  -0.00042   0.03795  -0.05482
  -0.00054  -0.04039   0.05485
   0.03795  -0.00042  -0.05600
  -0.04041  -0.00053   0.05586
  -0.00054  -0.04039   0.05484
  -0.00042   0.03795  -0.05481
   0.00043  -0.03794   0.05481
   0.00054   0.04039  -0.05484
   0.04041   0.00054  -0.05587
  -0.03794   0.00042   0.05602
   0.03795  -0.00042  -0.05601
  -0.04041  -0.00054   0.05585
   0.01974   0.01966   0.00013
  -0.02004  -0.01933  -0.00012
  -0.01974  -0.01966  -0.00012
   0.02005   0.01935   0.00012
   0.01973   0.01965   0.00012
  -0.02005  -0.01934  -0.00012
  -0.01974  -0.01966  -0.00012
   0.02005   0.01934   0.00012
 vibration    17
  -0.23892   0.24657   0.00618
   0.24174  -0.24362   0.00650
  -0.23891   0.24660   0.00622
   0.24176  -0.24362   0.00647
  -0.24175   0.24363  -0.00648
   0.23892  -0.24658  -0.00620
  -0.24176   0.24363  -0.00649
   0.23890  -0.24660  -0.00620
  -0.00106   0.00041   0.00023
   0.00038  -0.00104   0.00023
   0.00104  -0.00039  -0.00023
  -0.00037   0.00105  -0.00023
  -0.00105   0.00041   0.00023
   0.00037  -0.00106   0.00023
   0.00106  -0.00041  -0.00023
  -0.00038   0.00105  -0.00023
   0.00008  -0.00012  -0.05301
   0.00060  -0.00019   0.05821
   0.00011  -0.00091   0.05411
   0.00018   0.00018  -0.05932
  -0.00017  -0.00018   0.05929
  -0.00011   0.00090  -0.05408
  -0.00059   0.00018  -0.05822
  -0.00007   0.00012   0.05300
  -0.00010   0.00090  -0.05410
  -0.00017  -0.00018   0.05930
   0.00018   0.00017  -0.05930
   0.00011  -0.00090   0.05409
   0.00008  -0.00012  -0.05299
   0.00060  -0.00019   0.05821
  -0.00059   0.00018  -0.05822
  -0.00007   0.00012   0.05302
   0.01989  -0.02001   0.00005
  -0.01960   0.02030   0.00006
  -0.01990   0.02001  -0.00006
   0.01962  -0.02030  -0.00006
   0.01991  -0.02000   0.00006
  -0.01961   0.02028   0.00006
  -0.01991   0.02001  -0.00005
   0.01963  -0.02030  -0.00006
 vibration    18
  -0.01760  -0.00208  -0.09020
   0.00203   0.01759   0.09020
  -0.01758  -0.00207  -0.09020
   0.00207   0.01757   0.09020
  -0.00207  -0.01759  -0.09020
   0.01758   0.00207   0.09019
  -0.00204  -0.01758  -0.09019
   0.01760   0.00207   0.09020
  -0.00298   0.00222  -0.00006
  -0.00222   0.00299   0.00005
   0.00295  -0.00222   0.00005
   0.00224  -0.00300  -0.00006
  -0.00299   0.00222  -0.00007
  -0.00227   0.00300   0.00007
   0.00300  -0.00223   0.00006
   0.00224  -0.00300  -0.00007
  -0.24544  -0.00144  -0.00229
   0.23723  -0.00147   0.00273
  -0.00144  -0.24541  -0.00229
  -0.00147   0.23721   0.00274
   0.00148  -0.23724  -0.00273
   0.00145   0.24544   0.00229
  -0.23724   0.00148  -0.00273
   0.24548   0.00145   0.00229
   0.00145   0.24542   0.00229
   0.00148  -0.23721  -0.00273
  -0.00148   0.23721   0.00274
  -0.00144  -0.24540  -0.00229
  -0.24545  -0.00144  -0.00228
   0.23724  -0.00147   0.00274
  -0.23724   0.00148  -0.00274
   0.24547   0.00144   0.00229
   0.00073   0.00069  -0.00175
  -0.00067  -0.00072   0.00175
  -0.00072  -0.00067   0.00175
   0.00068   0.00073  -0.00175
   0.00073   0.00069  -0.00175
  -0.00068  -0.00072   0.00175
  -0.00071  -0.00068   0.00175
   0.00069   0.00073  -0.00175
 vibration    19
  -0.14555  -0.32499   0.00318
   0.14903   0.31742  -0.00176
   0.14556   0.32498  -0.00318
  -0.14902  -0.31741   0.00174
   0.14887  -0.31736  -0.00104
  -0.14542   0.32492  -0.00287
  -0.14889   0.31735   0.00105
   0.14541  -0.32490   0.00287
   0.00079  -0.00002  -0.00171
  -0.00014  -0.00110   0.00173
  -0.00005  -0.00017  -0.00062
  -0.00022  -0.00075   0.00066
  -0.00079   0.00002   0.00171
   0.00014   0.00110  -0.00173
   0.00005   0.00018   0.00062
   0.00021   0.00076  -0.00066
  -0.00193  -0.00532   0.00237
   0.00298   0.00578  -0.00274
   0.00242  -0.00543  -0.00108
  -0.00264   0.00519   0.00029
  -0.00266  -0.00565   0.00188
   0.00245   0.00500  -0.00109
  -0.00200   0.00578  -0.00200
   0.00283  -0.00530   0.00237
  -0.00245  -0.00503   0.00110
   0.00265   0.00567  -0.00189
   0.00264  -0.00521  -0.00029
  -0.00242   0.00544   0.00109
   0.00196   0.00531  -0.00238
  -0.00299  -0.00579   0.00274
   0.00200  -0.00578   0.00201
  -0.00287   0.00530  -0.00237
   0.00124   0.00272  -0.01098
  -0.00164  -0.00160   0.01098
   0.00003   0.00227  -0.00408
   0.00064  -0.00101   0.00408
  -0.00125  -0.00274   0.01098
   0.00164   0.00160  -0.01098
  -0.00004  -0.00228   0.00407
  -0.00064   0.00102  -0.00408
 vibration    20
  -0.31736   0.14889  -0.00106
   0.32491  -0.14542  -0.00288
   0.31735  -0.14888   0.00105
  -0.32491   0.14542   0.00289
   0.32498   0.14556  -0.00321
  -0.31741  -0.14903   0.00173
  -0.32498  -0.14556   0.00320
   0.31742   0.14903  -0.00172
   0.00075   0.00022  -0.00065
   0.00017   0.00006   0.00062
  -0.00110  -0.00013   0.00172
  -0.00000   0.00080  -0.00171
  -0.00075  -0.00021   0.00065
  -0.00017  -0.00005  -0.00062
   0.00110   0.00013  -0.00173
  -0.00000  -0.00079   0.00171
  -0.00545   0.00241  -0.00109
   0.00522  -0.00265   0.00029
   0.00532   0.00191  -0.00238
  -0.00578  -0.00298   0.00274
  -0.00577   0.00197   0.00201
   0.00531  -0.00285  -0.00237
  -0.00567  -0.00266   0.00189
   0.00503   0.00244  -0.00110
  -0.00530   0.00287   0.00237
   0.00577  -0.00201  -0.00201
   0.00578   0.00300  -0.00274
  -0.00532  -0.00196   0.00237
   0.00542  -0.00242   0.00108
  -0.00519   0.00264  -0.00028
   0.00565   0.00265  -0.00188
  -0.00500  -0.00245   0.00109
   0.00103  -0.00066  -0.00408
  -0.00226  -0.00004   0.00408
  -0.00161  -0.00166   0.01098
   0.00272   0.00124  -0.01098
  -0.00103   0.00064   0.00408
   0.00226   0.00004  -0.00408
   0.00162   0.00163  -0.01098
  -0.00272  -0.00125   0.01098
 vibration    21
  -0.03703   0.32792   0.01946
  -0.03612   0.33598   0.02147
   0.03702  -0.32791  -0.01945
   0.03613  -0.33598  -0.02148
  -0.03597  -0.33598  -0.02627
  -0.03682  -0.32793  -0.02466
   0.03595   0.33598   0.02628
   0.03683   0.32793   0.02466
   0.00111   0.00804   0.12341
   0.00081  -0.00786  -0.12321
  -0.00058   0.00843   0.09907
   0.00261  -0.00781  -0.09872
  -0.00112  -0.00806  -0.12337
  -0.00081   0.00788   0.12353
   0.00059  -0.00842  -0.09933
  -0.00262   0.00781   0.09864
   0.00826   0.00159  -0.00171
   0.00843   0.00139  -0.00221
   0.00008  -0.00237  -0.01600
   0.00010  -0.00157  -0.01594
  -0.00040  -0.00028   0.01603
  -0.00042   0.00054   0.01597
   0.00859   0.00134   0.00128
   0.00855   0.00153   0.00179
   0.00043  -0.00057  -0.01600
   0.00040   0.00031  -0.01606
  -0.00009   0.00154   0.01596
  -0.00007   0.00240   0.01601
  -0.00822  -0.00159   0.00171
  -0.00845  -0.00139   0.00223
  -0.00856  -0.00134  -0.00131
  -0.00857  -0.00154  -0.00182
  -0.00248   0.00423   0.00037
  -0.00301   0.00322  -0.00052
  -0.00182   0.00366   0.00026
  -0.00214   0.00275  -0.00044
   0.00248  -0.00423  -0.00036
   0.00301  -0.00322   0.00053
   0.00183  -0.00367  -0.00029
   0.00214  -0.00275   0.00042
 vibration    22
   0.33598   0.03597   0.02622
   0.32793   0.03683   0.02459
  -0.33599  -0.03598  -0.02623
  -0.32793  -0.03684  -0.02456
   0.32794  -0.03701   0.01928
   0.33601  -0.03610   0.02135
  -0.32792   0.03702  -0.01929
  -0.33597   0.03612  -0.02132
  -0.00764   0.00260  -0.09847
   0.00832  -0.00060   0.09927