
     Program PHONON v.6.3 starts on 18Mar2019 at  8:58:27 

     This program is part of the open-source Quantum ESPRESSO suite
     for quantum simulation of materials; please cite
         "P. Giannozzi et al., J. Phys.:Condens. Matter 21 395502 (2009);
         "P. Giannozzi et al., J. Phys.:Condens. Matter 29 465901 (2017);
          URL http://www.quantum-espresso.org", 
     in publications or presentations arising from this work. More details at
     http://www.quantum-espresso.org/quote

     Parallel version (MPI & OpenMP), running on     512 processor cores
     Number of MPI processes:               512
     Threads/MPI process:                     1

     MPI processes distributed on     8 nodes
     K-points division:     npool     =      32
     R & G space division:  proc/nbgrp/npool/nimage =      16

     Reading data from directory:
     ./sto.save/

     IMPORTANT: XC functional enforced from input :
     Exchange-correlation      = PZ ( 1  1  0  0 0 0)
     Any further DFT definition will be discarded
     Please, verify this is what you really want

 
     Parallelization info
     --------------------
     sticks:   dense  smooth     PW     G-vecs:    dense   smooth      PW
     Min         208     208     55                 9176     9176    1281
     Max         209     209     56                 9179     9179    1286
     Sum        3341    3341    885               146849   146849   20519
 
        1 /   1 q-points for this run, from  1 to  1:
       N       xq(1)         xq(2)         xq(3) 
       1   0.000000000   0.000000000   0.000000000
 

     Calculation of q =    0.0000000   0.0000000   0.0000000

     Modes are read from file 

     phonons of Phosphorene                                                     

     bravais-lattice index     =            0
     lattice parameter (alat)  =      14.4937  a.u.
     unit-cell volume          =    3074.8188 (a.u.)^3
     number of atoms/cell      =           40
     number of atomic types    =            3
     kinetic-energy cut-off    =      50.0000  Ry
     charge density cut-off    =     200.0000  Ry
     convergence threshold     =      1.0E-16
     beta                      =       0.7000
     number of iterations used =            4
     Exchange-correlation      = PZ ( 1  1  0  0 0 0)


     celldm(1)=   28.98741  celldm(2)=***********  celldm(3)=    0.50495
     celldm(4)=    0.00000  celldm(5)=   -0.00004  celldm(6)=    0.00000

     crystal axes: (cart. coord. in units of alat)
               a(1) = (  1.0000 -0.0000 -0.0000 )  
               a(2) = ( -0.0000  1.0000 -0.0000 )  
               a(3) = ( -0.0000 -0.0000  1.0099 )  

     reciprocal axes: (cart. coord. in units 2 pi/alat)
               b(1) = (  1.0000  0.0000  0.0000 )  
               b(2) = (  0.0000  1.0000  0.0000 )  
               b(3) = (  0.0000  0.0000  0.9902 )  


     Atoms inside the unit cell: 

     Cartesian axes

     site n.  atom      mass           positions (alat units)
        1     Sr  87.6200   tau(    1) = (    0.50399    0.00396    0.00410  )
        2     Sr  87.6200   tau(    2) = (    0.00394    0.50397    0.50905  )
        3     Sr  87.6200   tau(    3) = (    0.00399    0.50396    0.00410  )
        4     Sr  87.6200   tau(    4) = (    0.50394    0.00397    0.50905  )
        5     Sr  87.6200   tau(    5) = (    0.50396    0.50399    0.00409  )
        6     Sr  87.6200   tau(    6) = (    0.00397    0.00394    0.50907  )
        7     Sr  87.6200   tau(    7) = (    0.00396    0.00399    0.00411  )
        8     Sr  87.6200   tau(    8) = (    0.50397    0.50394    0.50904  )
        9     Ti  47.8600   tau(    9) = (    0.75391    0.75393    0.76156  )
       10     Ti  47.8600   tau(   10) = (    0.75395    0.75393    0.25661  )
       11     Ti  47.8600   tau(   11) = (    0.75393    0.25395    0.25662  )
       12     Ti  47.8600   tau(   12) = (    0.75393    0.25391    0.76157  )
       13     Ti  47.8600   tau(   13) = (    0.25391    0.25393    0.76159  )
       14     Ti  47.8600   tau(   14) = (    0.25395    0.25393    0.25664  )
       15     Ti  47.8600   tau(   15) = (    0.25393    0.75395    0.25662  )
       16     Ti  47.8600   tau(   16) = (    0.25393    0.75391    0.76158  )
       17     O   15.9900   tau(   17) = (    0.72348    0.00401    0.25661  )
       18     O   15.9900   tau(   18) = (    0.78457    0.50401    0.25622  )
       19     O   15.9900   tau(   19) = (    0.50401    0.72348    0.25660  )
       20     O   15.9900   tau(   20) = (    0.00401    0.78457    0.25623  )
       21     O   15.9900   tau(   21) = (    0.50399    0.78455    0.76117  )
       22     O   15.9900   tau(   22) = (    0.00399    0.72346    0.76156  )
       23     O   15.9900   tau(   23) = (    0.78455    0.00399    0.76118  )
       24     O   15.9900   tau(   24) = (    0.72346    0.50399    0.76155  )
       25     O   15.9900   tau(   25) = (    0.50399    0.22346    0.76156  )
       26     O   15.9900   tau(   26) = (    0.00399    0.28455    0.76120  )
       27     O   15.9900   tau(   27) = (    0.50401    0.28457    0.25623  )
       28     O   15.9900   tau(   28) = (    0.00401    0.22348    0.25662  )
       29     O   15.9900   tau(   29) = (    0.22348    0.50401    0.25661  )
       30     O   15.9900   tau(   30) = (    0.28457    0.00401    0.25624  )
       31     O   15.9900   tau(   31) = (    0.28455    0.50399    0.76118  )
       32     O   15.9900   tau(   32) = (    0.22346    0.00399    0.76158  )
       33     O   15.9900   tau(   33) = (    0.75382    0.75423    0.00394  )
       34     O   15.9900   tau(   34) = (    0.75421    0.75380    0.50890  )
       35     O   15.9900   tau(   35) = (    0.75381    0.25421    0.50891  )
       36     O   15.9900   tau(   36) = (    0.75423    0.25382    0.00396  )
       37     O   15.9900   tau(   37) = (    0.25382    0.25423    0.00397  )
       38     O   15.9900   tau(   38) = (    0.25421    0.25380    0.50892  )
       39     O   15.9900   tau(   39) = (    0.25380    0.75421    0.50891  )
       40     O   15.9900   tau(   40) = (    0.25423    0.75382    0.00396  )

     Computing dynamical matrix for 
                    q = (   0.0000000   0.0000000   0.0000000 )
 
      2 Sym.Ops. (with q -> -q+G )


     G cutoff = 1064.2143  (   9178 G-vectors)     FFT grid: ( 72, 72, 72)
     number of k points=    32

     PseudoPot. # 1 for Sr read from file:
     ./norm/sr_srl_lda.upf
     MD5 check sum: d69c13f9a890097932991d246fec5798
     Pseudo is Norm-conserving, Zval = 10.0
     Generated by new atomic code, or converted to UPF format
     Using radial grid of 1170 points,  3 beta functions with: 
                l(1) =   0
                l(2) =   1
                l(3) =   2

     PseudoPot. # 2 for Ti read from file:
     ./norm/ti_srl_lda.upf
     MD5 check sum: 490284f24a9218b6ef7498554e542f4d
     Pseudo is Norm-conserving, Zval = 12.0
     Generated by new atomic code, or converted to UPF format
     Using radial grid of 1156 points,  3 beta functions with: 
                l(1) =   0
                l(2) =   1
                l(3) =   2

     PseudoPot. # 3 for O  read from file:
     ./norm/o_srl_lda.upf
     MD5 check sum: ae6ad2a925f69b21c27fc7471525ac1c
     Pseudo is Norm-conserving, Zval =  6.0
     Generated by new atomic code, or converted to UPF format
     Using radial grid of 1130 points,  1 beta functions with: 
                l(1) =   1

     Mode symmetry, C_1 (1)     point group:


     Electric field:
     Dielectric constant
     Born effective charges in two ways 
     Raman tensor


     Atomic displacements:
     There are 120 irreducible representations

     Representation     1      1 modes -A  Done

     Representation     2      1 modes -A  Done

     Representation     3      1 modes -A  Done

     Representation     4      1 modes -A  Done

     Representation     5      1 modes -A  Done

     Representation     6      1 modes -A  Done

     Representation     7      1 modes -A  Done

     Representation     8      1 modes -A  Done

     Representation     9      1 modes -A  Done

     Representation    10      1 modes -A  Done

     Representation    11      1 modes -A  Done

     Representation    12      1 modes -A  Done

     Representation    13      1 modes -A  Done

     Representation    14      1 modes -A  Done

     Representation    15      1 modes -A  Done

     Representation    16      1 modes -A  Done

     Representation    17      1 modes -A  Done

     Representation    18      1 modes -A  Done

     Representation    19      1 modes -A  Done

     Representation    20      1 modes -A  Done

     Representation    21      1 modes -A  Done

     Representation    22      1 modes -A  Done

     Representation    23      1 modes -A  Done

     Representation    24      1 modes -A  Done

     Representation    25      1 modes -A  Done

     Representation    26      1 modes -A  Done

     Representation    27      1 modes -A  Done

     Representation    28      1 modes -A  Done

     Representation    29      1 modes -A  Done

     Representation    30      1 modes -A  Done

     Representation    31      1 modes -A  Done

     Representation    32      1 modes -A  Done

     Representation    33      1 modes -A  Done

     Representation    34      1 modes -A  Done

     Representation    35      1 modes -A  Done

     Representation    36      1 modes -A  Done

     Representation    37      1 modes -A  Done

     Representation    38      1 modes -A  To be done

     Representation    39      1 modes -A  To be done

     Representation    40      1 modes -A  To be done

     Representation    41      1 modes -A  To be done

     Representation    42      1 modes -A  To be done

     Representation    43      1 modes -A  To be done

     Representation    44      1 modes -A  To be done

     Representation    45      1 modes -A  To be done

     Representation    46      1 modes -A  To be done

     Representation    47      1 modes -A  To be done

     Representation    48      1 modes -A  To be done

     Representation    49      1 modes -A  To be done

     Representation    50      1 modes -A  To be done

     Representation    51      1 modes -A  To be done

     Representation    52      1 modes -A  To be done

     Representation    53      1 modes -A  To be done

     Representation    54      1 modes -A  To be done

     Representation    55      1 modes -A  To be done

     Representation    56      1 modes -A  To be done

     Representation    57      1 modes -A  To be done

     Representation    58      1 modes -A  To be done

     Representation    59      1 modes -A  To be done

     Representation    60      1 modes -A  To be done

     Representation    61      1 modes -A  To be done

     Representation    62      1 modes -A  To be done

     Representation    63      1 modes -A  To be done

     Representation    64      1 modes -A  To be done

     Representation    65      1 modes -A  To be done

     Representation    66      1 modes -A  To be done

     Representation    67      1 modes -A  To be done

     Representation    68      1 modes -A  To be done

     Representation    69      1 modes -A  To be done

     Representation    70      1 modes -A  To be done

     Representation    71      1 modes -A  To be done

     Representation    72      1 modes -A  To be done

     Representation    73      1 modes -A  To be done

     Representation    74      1 modes -A  To be done

     Representation    75      1 modes -A  To be done

     Representation    76      1 modes -A  To be done

     Representation    77      1 modes -A  To be done

     Representation    78      1 modes -A  To be done

     Representation    79      1 modes -A  To be done

     Representation    80      1 modes -A  To be done

     Representation    81      1 modes -A  To be done

     Representation    82      1 modes -A  To be done

     Representation    83      1 modes -A  To be done

     Representation    84      1 modes -A  To be done

     Representation    85      1 modes -A  To be done

     Representation    86      1 modes -A  To be done

     Representation    87      1 modes -A  To be done

     Representation    88      1 modes -A  To be done

     Representation    89      1 modes -A  To be done

     Representation    90      1 modes -A  To be done

     Representation    91      1 modes -A  To be done

     Representation    92      1 modes -A  To be done

     Representation    93      1 modes -A  To be done

     Representation    94      1 modes -A  To be done

     Representation    95      1 modes -A  To be done

     Representation    96      1 modes -A  To be done

     Representation    97      1 modes -A  To be done

     Representation    98      1 modes -A  To be done

     Representation    99      1 modes -A  To be done

     Representation   100      1 modes -A  To be done

     Representation   101      1 modes -A  To be done

     Representation   102      1 modes -A  To be done

     Representation   103      1 modes -A  To be done

     Representation   104      1 modes -A  To be done

     Representation   105      1 modes -A  To be done

     Representation   106      1 modes -A  To be done

     Representation   107      1 modes -A  To be done

     Representation   108      1 modes -A  To be done

     Representation   109      1 modes -A  To be done

     Representation   110      1 modes -A  To be done

     Representation   111      1 modes -A  To be done

     Representation   112      1 modes -A  To be done

     Representation   113      1 modes -A  To be done

     Representation   114      1 modes -A  To be done

     Representation   115      1 modes -A  To be done

     Representation   116      1 modes -A  To be done

     Representation   117      1 modes -A  To be done

     Representation   118      1 modes -A  To be done

     Representation   119      1 modes -A  To be done

     Representation   120      1 modes -A  To be done


     PHONON       :     24.67s CPU   1m 6.80s WALL


          Dielectric constant in cartesian axis 

          (       6.354663754       0.000010935      -0.000264296 )
          (       0.000010935       6.354566587      -0.000251821 )
          (      -0.000264296      -0.000251821       6.402733268 )

          Effective charges (d Force / dE) in cartesian axis

           atom      1   Sr 
      Ex  (        2.49787        0.00000       -0.00089 )
      Ey  (       -0.00001        2.49733        0.00035 )
      Ez  (       -0.00032       -0.00022        2.59635 )
           atom      2   Sr 
      Ex  (        2.49733       -0.00001        0.00036 )
      Ey  (        0.00000        2.49787       -0.00088 )
      Ez  (       -0.00023       -0.00033        2.59635 )
           atom      3   Sr 
      Ex  (        2.49787       -0.00000       -0.00089 )
      Ey  (       -0.00001        2.49733        0.00035 )
      Ez  (       -0.00033       -0.00023        2.59635 )
           atom      4   Sr 
      Ex  (        2.49733       -0.00001        0.00036 )
      Ey  (       -0.00000        2.49787       -0.00088 )
      Ez  (       -0.00022       -0.00032        2.59635 )
           atom      5   Sr 
      Ex  (        2.49733       -0.00001        0.00036 )
      Ey  (        0.00000        2.49787       -0.00088 )
      Ez  (       -0.00022       -0.00033        2.59635 )
           atom      6   Sr 
      Ex  (        2.49787        0.00000       -0.00089 )
      Ey  (       -0.00001        2.49733        0.00035 )
      Ez  (       -0.00033       -0.00022        2.59635 )
           atom      7   Sr 
      Ex  (        2.49733       -0.00001        0.00036 )
      Ey  (       -0.00000        2.49787       -0.00088 )
      Ez  (       -0.00023       -0.00032        2.59635 )
           atom      8   Sr 
      Ex  (        2.49787       -0.00000       -0.00089 )
      Ey  (       -0.00001        2.49733        0.00035 )
      Ez  (       -0.00032       -0.00023        2.59635 )
           atom      9   Ti 
      Ex  (        7.31146       -0.41245        0.00184 )
      Ey  (        0.41242        7.31152       -0.00280 )
      Ez  (       -0.00338        0.00245        7.31593 )
           atom     10   Ti 
      Ex  (        7.31149        0.41242       -0.00280 )
      Ey  (       -0.41245        7.31149        0.00184 )
      Ez  (        0.00246       -0.00338        7.31593 )
           atom     11   Ti 
      Ex  (        7.31148       -0.41245        0.00183 )
      Ey  (        0.41242        7.31152       -0.00280 )
      Ez  (       -0.00338        0.00245        7.31594 )
           atom     12   Ti 
      Ex  (        7.31149        0.41242       -0.00280 )
      Ey  (       -0.41245        7.31149        0.00184 )
      Ez  (        0.00245       -0.00338        7.31594 )
           atom     13   Ti 
      Ex  (        7.31147       -0.41245        0.00183 )
      Ey  (        0.41242        7.31150       -0.00280 )
      Ez  (       -0.00338        0.00245        7.31593 )
           atom     14   Ti 
      Ex  (        7.31151        0.41242       -0.00280 )
      Ey  (       -0.41245        7.31148        0.00183 )
      Ez  (        0.00245       -0.00338        7.31593 )
           atom     15   Ti 
      Ex  (        7.31147       -0.41245        0.00184 )
      Ey  (        0.41242        7.31151       -0.00280 )
      Ez  (       -0.00338        0.00245        7.31590 )
           atom     16   Ti 
      Ex  (        7.31149        0.41242       -0.00280 )
      Ey  (       -0.41245        7.31148        0.00183 )
      Ez  (        0.00246       -0.00338        7.31591 )
           atom     17   O  
      Ex  (       -2.03208       -0.00067       -0.00009 )
      Ey  (       -0.00093       -5.74623        0.00027 )
      Ez  (        0.00007       -0.00019       -2.08693 )
           atom     18   O  
      Ex  (       -2.03289        0.00070        0.00139 )
      Ey  (        0.00095       -5.74469        0.00023 )
      Ez  (        0.00120       -0.00021       -2.08723 )
           atom     19   O  
      Ex  (       -5.74618       -0.00094        0.00026 )
      Ey  (       -0.00069       -2.03208       -0.00009 )
      Ez  (       -0.00019        0.00007       -2.08691 )
           atom     20   O  
      Ex  (       -5.74466        0.00096        0.00024 )
      Ey  (        0.00071       -2.03287        0.00139 )
      Ez  (       -0.00021        0.00120       -2.08721 )
           atom     21   O  
      Ex  (       -5.74465        0.00097        0.00024 )
      Ey  (        0.00071       -2.03288        0.00139 )
      Ez  (       -0.00020        0.00120       -2.08721 )
           atom     22   O  
      Ex  (       -5.74617       -0.00094        0.00026 )
      Ey  (       -0.00069       -2.03208       -0.00009 )
      Ez  (       -0.00019        0.00007       -2.08691 )
           atom     23   O  
      Ex  (       -2.03289        0.00070        0.00139 )
      Ey  (        0.00095       -5.74469        0.00024 )
      Ez  (        0.00120       -0.00020       -2.08723 )
           atom     24   O  
      Ex  (       -2.03208       -0.00068       -0.00009 )
      Ey  (       -0.00093       -5.74623        0.00026 )
      Ez  (        0.00007       -0.00020       -2.08693 )
           atom     25   O  
      Ex  (       -5.74619       -0.00095        0.00026 )
      Ey  (       -0.00069       -2.03208       -0.00009 )
      Ez  (       -0.00019        0.00007       -2.08692 )
           atom     26   O  
      Ex  (       -5.74467        0.00097        0.00024 )
      Ey  (        0.00071       -2.03287        0.00138 )
      Ez  (       -0.00021        0.00120       -2.08722 )
           atom     27   O  
      Ex  (       -5.74468        0.00097        0.00024 )
      Ey  (        0.00071       -2.03288        0.00139 )
      Ez  (       -0.00020        0.00120       -2.08722 )
           atom     28   O  
      Ex  (       -5.74620       -0.00094        0.00026 )
      Ey  (       -0.00069       -2.03208       -0.00009 )
      Ez  (       -0.00020        0.00007       -2.08692 )
           atom     29   O  
      Ex  (       -2.03208       -0.00068       -0.00009 )
      Ey  (       -0.00093       -5.74622        0.00026 )
      Ez  (        0.00007       -0.00020       -2.08692 )
           atom     30   O  
      Ex  (       -2.03289        0.00070        0.00138 )
      Ey  (        0.00095       -5.74468        0.00024 )
      Ez  (        0.00120       -0.00020       -2.08723 )
           atom     31   O  
      Ex  (       -2.03288        0.00070        0.00139 )
      Ey  (        0.00095       -5.74466        0.00024 )
      Ez  (        0.00120       -0.00021       -2.08722 )
           atom     32   O  
      Ex  (       -2.03208       -0.00067       -0.00009 )
      Ey  (       -0.00093       -5.74619        0.00026 )
      Ez  (        0.00007       -0.00019       -2.08692 )
           atom     33   O  
      Ex  (       -2.03251        0.00019       -0.00018 )
      Ey  (       -0.00017       -2.03254       -0.00012 )
      Ez  (        0.00016        0.00045       -5.73996 )
           atom     34   O  
      Ex  (       -2.03253       -0.00017       -0.00012 )
      Ey  (        0.00018       -2.03252       -0.00018 )
      Ez  (        0.00045        0.00016       -5.73996 )
           atom     35   O  
      Ex  (       -2.03252        0.00019       -0.00018 )
      Ey  (       -0.00017       -2.03254       -0.00012 )
      Ez  (        0.00016        0.00046       -5.73998 )
           atom     36   O  
      Ex  (       -2.03253       -0.00017       -0.00012 )
      Ey  (        0.00019       -2.03252       -0.00018 )
      Ez  (        0.00045        0.00016       -5.73998 )
           atom     37   O  
      Ex  (       -2.03251        0.00018       -0.00018 )
      Ey  (       -0.00018       -2.03253       -0.00011 )
      Ez  (        0.00016        0.00046       -5.73995 )
           atom     38   O  
      Ex  (       -2.03253       -0.00017       -0.00012 )
      Ey  (        0.00019       -2.03251       -0.00018 )
      Ez  (        0.00045        0.00016       -5.73996 )
           atom     39   O  
      Ex  (       -2.03250        0.00019       -0.00018 )
      Ey  (       -0.00017       -2.03252       -0.00012 )
      Ez  (        0.00016        0.00045       -5.73991 )
           atom     40   O  
      Ex  (       -2.03251       -0.00017       -0.00012 )
      Ey  (        0.00019       -2.03250       -0.00018 )
      Ez  (        0.00045        0.00016       -5.73991 )

     Raman tensor (A^2)

     atom #    1    pol.  1
     -0.230057478996E-01      0.292136110594E-02      0.357530020555E+00
      0.292136110594E-02     -0.476803218565E-02     -0.493859032805E-02
      0.357530020555E+00     -0.493859032805E-02     -0.163628999918E-01
     atom #    1    pol.  2
     -0.461677115319E-01     -0.393029286996E-02      0.138639238221E-02
     -0.393029286996E-02     -0.724447779848E-02     -0.372783466853E+00
      0.138639238221E-02     -0.372783466853E+00      0.234900454002E-01
     atom #    1    pol.  3
      0.314444094241E+01     -0.350582986101E-02     -0.965495858934E-02
     -0.350582986101E-02     -0.313881017539E+01      0.155284691560E-01
     -0.965495858934E-02      0.155284691560E-01      0.435691075286E-01
     atom #    2    pol.  1
      0.653376581000E-02     -0.327173658791E-02     -0.363990206568E+00
     -0.327173658791E-02      0.119445017974E-01      0.537000687198E-02
     -0.363990206568E+00      0.537000687198E-02      0.259819197750E-01
     atom #    2    pol.  2
      0.529340412469E-01      0.381341130814E-02     -0.181136007579E-02
      0.381341130814E-02     -0.813734385992E-02      0.366397384057E+00
     -0.181136007579E-02      0.366397384057E+00     -0.135898042431E-01
     atom #    2    pol.  3
     -0.316795138601E+01      0.333486754825E-02      0.108143500720E-01
      0.333486754825E-02      0.311572037069E+01     -0.149105582012E-01
      0.108143500720E-01     -0.149105582012E-01     -0.289922758991E-02
     atom #    3    pol.  1
     -0.231050717224E-01      0.292522910921E-02      0.357572672738E+00
      0.292522910921E-02     -0.478295607955E-02     -0.492069638282E-02
      0.357572672738E+00     -0.492069638282E-02     -0.164071553519E-01
     atom #    3    pol.  2
     -0.461693751158E-01     -0.391920382553E-02      0.137813796600E-02
     -0.391920382553E-02     -0.733442830901E-02     -0.372783816461E+00
      0.137813796600E-02     -0.372783816461E+00      0.234424816023E-01
     atom #    3    pol.  3
      0.314444909737E+01     -0.351678271208E-02     -0.964382235834E-02
     -0.351678271208E-02     -0.313882828965E+01      0.155188635705E-01
     -0.964382235834E-02      0.155188635705E-01      0.435635572898E-01
     atom #    4    pol.  1
      0.663383000908E-02     -0.327874374546E-02     -0.364027550911E+00
     -0.327874374546E-02      0.119478970100E-01      0.538910105305E-02
     -0.364027550911E+00      0.538910105305E-02      0.260173225129E-01
     atom #    4    pol.  2
      0.529247318923E-01      0.380740268608E-02     -0.182570644262E-02
      0.380740268608E-02     -0.801857357225E-02      0.366390107519E+00
     -0.182570644262E-02      0.366390107519E+00     -0.135730506157E-01
     atom #    4    pol.  3
     -0.316796488483E+01      0.332030314223E-02      0.108170314302E-01
      0.332030314223E-02      0.311572791426E+01     -0.149308606734E-01
      0.108170314302E-01     -0.149308606734E-01     -0.290542989837E-02
     atom #    5    pol.  1
      0.680769043232E-02     -0.327866282119E-02     -0.364019911481E+00
     -0.327866282119E-02      0.117471758966E-01      0.540750185267E-02
     -0.364019911481E+00      0.540750185267E-02      0.260847703133E-01
     atom #    5    pol.  2
      0.530907449312E-01      0.380013582482E-02     -0.182510561845E-02
      0.380013582482E-02     -0.831401118261E-02      0.366370198229E+00
     -0.182510561845E-02      0.366370198229E+00     -0.136279311946E-01
     atom #    5    pol.  3
     -0.316799541270E+01      0.331930802912E-02      0.107401213136E-01
      0.331930802912E-02      0.311579927669E+01     -0.148500822526E-01
      0.107401213136E-01     -0.148500822526E-01     -0.282619436873E-02
     atom #    6    pol.  1
     -0.229596062889E-01      0.288526797695E-02      0.357588753841E+00
      0.288526797695E-02     -0.497094762155E-02     -0.493403965710E-02
      0.357588753841E+00     -0.493403965710E-02     -0.163504490785E-01
     atom #    6    pol.  2
     -0.460075850857E-01     -0.389731961925E-02      0.140902394924E-02
     -0.389731961925E-02     -0.738704777780E-02     -0.372780985404E+00
      0.140902394924E-02     -0.372780985404E+00      0.234361901756E-01
     atom #    6    pol.  3
      0.314461871861E+01     -0.348787070488E-02     -0.965628360778E-02
     -0.348787070488E-02     -0.313903134849E+01      0.155440889316E-01
     -0.965628360778E-02      0.155440889316E-01      0.435073553925E-01
     atom #    7    pol.  1
      0.672074141767E-02     -0.328171040116E-02     -0.363984066240E+00
     -0.328171040116E-02      0.117268430351E-01      0.542238651801E-02
     -0.363984066240E+00      0.542238651801E-02      0.260135442514E-01
     atom #    7    pol.  2
      0.530790167183E-01      0.379515867549E-02     -0.182372922102E-02
      0.379515867549E-02     -0.819634609087E-02      0.366362636605E+00
     -0.182372922102E-02      0.366362636605E+00     -0.136211154444E-01
     atom #    7    pol.  3
     -0.316800001082E+01      0.331132429452E-02      0.107376437908E-01
      0.331132429452E-02      0.311580973865E+01     -0.148692936485E-01
      0.107376437908E-01     -0.148692936485E-01     -0.283170653493E-02
     atom #    8    pol.  1
     -0.228588042530E-01      0.288731112929E-02      0.357554665787E+00
      0.288731112929E-02     -0.497207637536E-02     -0.491772600207E-02
      0.357554665787E+00     -0.491772600207E-02     -0.163129398633E-01
     atom #    8    pol.  2
     -0.460157309051E-01     -0.389300227509E-02      0.140957832655E-02
     -0.389300227509E-02     -0.747887041630E-02     -0.372787034455E+00
      0.140957832655E-02     -0.372787034455E+00      0.233817286530E-01
     atom #    8    pol.  3
      0.314461557528E+01     -0.349400820643E-02     -0.966049995018E-02
     -0.349400820643E-02     -0.313904123841E+01      0.155302320008E-01
     -0.966049995018E-02      0.155302320008E-01      0.435052574034E-01
     atom #    9    pol.  1
      0.234706689799E+00      0.301734413982E-01     -0.101328325180E+00
      0.301734413982E-01      0.120016422103E+00     -0.527424411129E-02
     -0.101328325180E+00     -0.527424411129E-02      0.929566515172E-01
     atom #    9    pol.  2
      0.605908920654E-01      0.396098512507E-01      0.940280071005E-02
      0.396098512507E-01      0.228981699415E+00     -0.101832168884E+00
      0.940280071005E-02     -0.101832168884E+00      0.799955422910E-01
     atom #    9    pol.  3
     -0.226137875773E+00     -0.349147560191E-03      0.368875217241E-01
     -0.349147560191E-03     -0.222321663947E+00      0.329595324733E-01
      0.368875217241E-01      0.329595324733E-01     -0.634001795640E+00
     atom #   10    pol.  1
      0.231890294013E+00      0.388830217850E-01     -0.945711561632E-01
      0.388830217850E-01      0.596411160006E-01      0.622352944294E-02
     -0.945711561632E-01      0.622352944294E-02      0.763534424339E-01
     atom #   10    pol.  2
      0.110903039463E+00      0.310405625549E-01     -0.837793855453E-02
      0.310405625549E-01      0.234983568076E+00     -0.104155374017E+00
     -0.837793855453E-02     -0.104155374017E+00      0.875678160862E-01
     atom #   10    pol.  3
     -0.222694542592E+00     -0.543624110379E-03      0.324697552808E-01
     -0.543624110379E-03     -0.228927370489E+00      0.407514916863E-01
      0.324697552808E-01      0.407514916863E-01     -0.638287224670E+00
     atom #   11    pol.  1
      0.235568827143E+00      0.301563912694E-01     -0.100789228946E+00
      0.301563912694E-01      0.120491912158E+00     -0.524106656920E-02
     -0.100789228946E+00     -0.524106656920E-02      0.934642222043E-01
     atom #   11    pol.  2
      0.602559165571E-01      0.396178541604E-01      0.936360913905E-02
      0.396178541604E-01      0.229244155993E+00     -0.101755567090E+00
      0.936360913905E-02     -0.101755567090E+00      0.797135873355E-01
     atom #   11    pol.  3
     -0.225197318211E+00     -0.246463584345E-03      0.373033253622E-01
     -0.246463584345E-03     -0.221475766298E+00      0.329569342088E-01
      0.373033253622E-01      0.329569342088E-01     -0.631363639748E+00
     atom #   12    pol.  1
      0.233344038681E+00      0.387886917341E-01     -0.941050980954E-01
      0.387886917341E-01      0.601625513229E-01      0.623652421169E-02
     -0.941050980954E-01      0.623652421169E-02      0.770051676361E-01
     atom #   12    pol.  2
      0.110963357591E+00      0.311039847997E-01     -0.836610222327E-02
      0.311039847997E-01      0.235225405841E+00     -0.104001992939E+00
     -0.836610222327E-02     -0.104001992939E+00      0.876824870190E-01
     atom #   12    pol.  3
     -0.221553993530E+00     -0.495856447588E-03      0.328121238348E-01
     -0.495856447588E-03     -0.228110654082E+00      0.408353003603E-01
      0.328121238348E-01      0.408353003603E-01     -0.635642791382E+00
     atom #   13    pol.  1
      0.235779226324E+00      0.301589188224E-01     -0.100904160572E+00
      0.301589188224E-01      0.120342121539E+00     -0.527939597865E-02
     -0.100904160572E+00     -0.527939597865E-02      0.934431594245E-01
     atom #   13    pol.  2
      0.603354283037E-01      0.395834866700E-01      0.937546133550E-02
      0.395834866700E-01      0.228557004941E+00     -0.101889550799E+00
      0.937546133550E-02     -0.101889550799E+00      0.797857561677E-01
     atom #   13    pol.  3
     -0.225464492220E+00     -0.371320208082E-03      0.371557755974E-01
     -0.371320208082E-03     -0.221908880147E+00      0.328709180213E-01
      0.371557755974E-01      0.328709180213E-01     -0.632473444102E+00
     atom #   14    pol.  1
      0.233307314059E+00      0.389437364060E-01     -0.941627741548E-01
      0.389437364060E-01      0.601140071258E-01      0.623134058386E-02
     -0.941627741548E-01      0.623134058386E-02      0.769988197010E-01
     atom #   14    pol.  2
      0.111005748447E+00      0.310477684626E-01     -0.835648979259E-02
      0.310477684626E-01      0.234881166604E+00     -0.104219040464E+00
     -0.835648979259E-02     -0.104219040464E+00      0.875762272926E-01
     atom #   14    pol.  3
     -0.222021817810E+00     -0.529813260260E-03      0.327687621505E-01
     -0.529813260260E-03     -0.228477304525E+00      0.406751511461E-01
      0.327687621505E-01      0.406751511461E-01     -0.636765784033E+00
     atom #   15    pol.  1
      0.234225341467E+00      0.301956675665E-01     -0.101286364396E+00
      0.301956675665E-01      0.120006390446E+00     -0.525548371198E-02
     -0.101286364396E+00     -0.525548371198E-02      0.928280798206E-01
     atom #   15    pol.  2
      0.603825747480E-01      0.395999390413E-01      0.939492429405E-02
      0.395999390413E-01      0.229192046804E+00     -0.102022457580E+00
      0.939492429405E-02     -0.102022457580E+00      0.796750045700E-01
     atom #   15    pol.  3
     -0.226438009768E+00     -0.240399777710E-03      0.369749727923E-01
     -0.240399777710E-03     -0.222571659107E+00      0.328974163953E-01
      0.369749727923E-01      0.328974163953E-01     -0.634542028293E+00
     atom #   16    pol.  1
      0.232287896255E+00      0.387490064915E-01     -0.945887510482E-01
      0.387490064915E-01      0.598665307410E-01      0.624295577061E-02
     -0.945887510482E-01      0.624295577061E-02      0.764556814455E-01
     atom #   16    pol.  2
      0.110708408462E+00      0.311302198174E-01     -0.838702601375E-02
      0.311302198174E-01      0.234843953062E+00     -0.104276395237E+00
     -0.838702601375E-02     -0.104276395237E+00      0.874157181417E-01
     atom #   16    pol.  3
     -0.222794522287E+00     -0.491920720619E-03      0.325425798519E-01
     -0.491920720619E-03     -0.229231326202E+00      0.407554446523E-01
      0.325425798519E-01      0.407554446523E-01     -0.638845233263E+00
     atom #   17    pol.  1
     -0.256628892598E+01     -0.176660895679E-01      0.203972336233E-01
     -0.176660895679E-01      0.271506903677E+01     -0.595852031680E-02
      0.203972336233E-01     -0.595852031680E-02     -0.175413402265E+01
     atom #   17    pol.  2
     -0.909297358865E-01      0.353865872988E+01     -0.220593261997E-01
      0.353865872988E+01     -0.175843519338E+00      0.730722846189E-01
     -0.220593261997E-01      0.730722846189E-01     -0.309291929059E-01
     atom #   17    pol.  3
      0.355984321949E-02     -0.131959880199E-02     -0.818998775169E+00
     -0.131959880199E-02      0.494696781897E-01     -0.470318376595E-01
     -0.818998775169E+00     -0.470318376595E-01      0.111401146826E+00
     atom #   18    pol.  1
      0.251070161935E+01     -0.117699016152E-01     -0.269274930613E-01
     -0.117699016152E-01     -0.275950168426E+01      0.162933742369E-02
     -0.269274930613E-01      0.162933742369E-02      0.175608122498E+01
     atom #   18    pol.  2
     -0.572190941287E-01     -0.358179213729E+01      0.217513445190E-01
     -0.358179213729E+01     -0.132513168961E+00      0.484647468855E-01
      0.217513445190E-01      0.484647468855E-01     -0.111083522309E+00
     atom #   18    pol.  3
     -0.117093007213E-01      0.243368942987E-02      0.820636338302E+00
      0.243368942987E-02      0.661675953105E-01      0.147013282044E-01
      0.820636338302E+00      0.147013282044E-01      0.533099352211E-01
     atom #   19    pol.  1
     -0.148988759842E+00      0.353657018336E+01      0.411915856952E-01
      0.353657018336E+01     -0.889402878274E-01      0.350496966039E-02
      0.411915856952E-01      0.350496966039E-02     -0.704868728464E-01
     atom #   19    pol.  2
      0.272016466073E+01     -0.588712780885E-02      0.916776369043E-03
     -0.588712780885E-02     -0.250548792337E+01     -0.140166679678E-01
      0.916776369043E-03     -0.140166679678E-01     -0.177539254100E+01
     atom #   19    pol.  3
      0.434527940379E-01      0.110039423052E-02     -0.133460272208E-01
      0.110039423052E-02      0.277615087987E-01     -0.809093130583E+00
     -0.133460272208E-01     -0.809093130583E+00      0.645821096666E-01
     atom #   20    pol.  1
     -0.158294262285E+00     -0.357551302563E+01      0.710311800761E-01
     -0.357551302563E+01     -0.616662161960E-01     -0.279917324671E-02
      0.710311800761E-01     -0.279917324671E-02     -0.713174346239E-01
     atom #   20    pol.  2
     -0.276318039825E+01     -0.228669508261E-01     -0.245681910836E-02
     -0.228669508261E-01      0.245040040540E+01      0.910990366045E-02
     -0.245681910836E-02      0.910990366045E-02      0.178021199627E+01
     atom #   20    pol.  3
      0.712053468255E-01     -0.740209261007E-03     -0.188044690962E-01
     -0.740209261007E-03     -0.364730152763E-01      0.810833488264E+00
     -0.188044690962E-01      0.810833488264E+00      0.969507542843E-01
     atom #   21    pol.  1
     -0.158247713495E+00     -0.357540734697E+01      0.710248177981E-01
     -0.357540734697E+01     -0.622647799289E-01     -0.271927486935E-02
      0.710248177981E-01     -0.271927486935E-02     -0.717084903750E-01
     atom #   21    pol.  2
     -0.276196201648E+01     -0.225447341030E-01     -0.228123313793E-02
     -0.225447341030E-01      0.244945611816E+01      0.888865749918E-02
     -0.228123313793E-02      0.888865749918E-02      0.178061868494E+01
     atom #   21    pol.  3
      0.713371193413E-01     -0.460922842845E-03     -0.186587993095E-01
     -0.460922842845E-03     -0.364003053051E-01      0.811074362297E+00
     -0.186587993095E-01      0.811074362297E+00      0.969975554621E-01
     atom #   22    pol.  1
     -0.149100827953E+00      0.353661722637E+01      0.412664006214E-01
      0.353661722637E+01     -0.887268706102E-01      0.339999069337E-02
      0.412664006214E-01      0.339999069337E-02     -0.703612723162E-01
     atom #   22    pol.  2
      0.271987378749E+01     -0.588793551097E-02      0.734262048767E-03
     -0.588793551097E-02     -0.250500492582E+01     -0.138452339875E-01
      0.734262048767E-03     -0.138452339875E-01     -0.177512580062E+01
     atom #   22    pol.  3
      0.432554900898E-01      0.859044839884E-03     -0.137406337540E-01
      0.859044839884E-03      0.277041588325E-01     -0.809245266687E+00
     -0.137406337540E-01     -0.809245266687E+00      0.646928824299E-01
     atom #   23    pol.  1
      0.251116604171E+01     -0.117016932394E-01     -0.267544252552E-01
     -0.117016932394E-01     -0.275982199376E+01      0.148051891197E-02
     -0.267544252552E-01      0.148051891197E-02      0.175632061759E+01
     atom #   23    pol.  2
     -0.572203784750E-01     -0.358162486211E+01      0.217095503266E-01
     -0.358162486211E+01     -0.133081489542E+00      0.485191384247E-01
      0.217095503266E-01      0.485191384247E-01     -0.111024881175E+00
     atom #   23    pol.  3
     -0.118232038954E-01      0.213734979625E-02      0.820470417684E+00
      0.213734979625E-02      0.659481915934E-01      0.142683114387E-01
      0.820470417684E+00      0.142683114387E-01      0.534180605898E-01
     atom #   24    pol.  1
     -0.256726480468E+01     -0.173158255592E-01      0.202004267859E-01
     -0.173158255592E-01      0.271644544752E+01     -0.577922097507E-02
      0.202004267859E-01     -0.577922097507E-02     -0.175374544160E+01
     atom #   24    pol.  2
     -0.910708614373E-01      0.353855265051E+01     -0.219825712861E-01
      0.353855265051E+01     -0.174918197102E+00      0.730267405022E-01
     -0.219825712861E-01      0.730267405022E-01     -0.310006891353E-01
     atom #   24    pol.  3
      0.362048232857E-02     -0.107483207451E-02     -0.818670926681E+00
     -0.107483207451E-02      0.495952623612E-01     -0.468709393453E-01
     -0.818670926681E+00     -0.468709393453E-01      0.111371473789E+00
     atom #   25    pol.  1
     -0.149869452990E+00      0.353663004162E+01      0.413317969088E-01
      0.353663004162E+01     -0.891560019971E-01      0.340365141838E-02
      0.413317969088E-01      0.340365141838E-02     -0.708775238699E-01
     atom #   25    pol.  2
      0.271987782997E+01     -0.587627479890E-02      0.728303855390E-03
     -0.587627479890E-02     -0.250498879558E+01     -0.137967701652E-01
      0.728303855390E-03     -0.137967701652E-01     -0.177513808728E+01
     atom #   25    pol.  3
      0.430644196114E-01      0.864337706451E-03     -0.138909440489E-01
      0.864337706451E-03      0.276716299981E-01     -0.809247529290E+00
     -0.138909440489E-01     -0.809247529290E+00      0.643221787222E-01
     atom #   26    pol.  1
     -0.158850292999E+00     -0.357542948229E+01      0.704854514807E-01
     -0.357542948229E+01     -0.624189509134E-01     -0.274136761278E-02
      0.704854514807E-01     -0.274136761278E-02     -0.719711604492E-01
     atom #   26    pol.  2
     -0.276196696625E+01     -0.225322750875E-01     -0.228141004902E-02
     -0.225322750875E-01      0.244943806165E+01      0.898354521110E-02
     -0.228141004902E-02      0.898354521110E-02      0.178063524722E+01
     atom #   26    pol.  3
      0.710292918988E-01     -0.461633971927E-03     -0.187679725854E-01
     -0.461633971927E-03     -0.363582805837E-01      0.811073554343E+00
     -0.187679725854E-01      0.811073554343E+00      0.966699816684E-01
     atom #   27    pol.  1
     -0.159277237583E+00     -0.357551356512E+01      0.704698249818E-01
     -0.357551356512E+01     -0.621201010635E-01     -0.280058481889E-02
      0.704698249818E-01     -0.280058481889E-02     -0.718652210925E-01
     atom #   27    pol.  2
     -0.276322665605E+01     -0.228660314052E-01     -0.243826377557E-02
     -0.228660314052E-01      0.245040562053E+01      0.920823146348E-02
     -0.243826377557E-02      0.920823146348E-02      0.178024122899E+01
     atom #   27    pol.  3
      0.709118409211E-01     -0.736590181400E-03     -0.189486172578E-01
     -0.736590181400E-03     -0.364527485291E-01      0.810822605425E+00
     -0.189486172578E-01      0.810822605425E+00      0.966316601543E-01
     atom #   28    pol.  1
     -0.149795208218E+00      0.353656060160E+01      0.412992268564E-01
      0.353656060160E+01     -0.892757213687E-01      0.351662500179E-02
      0.412992268564E-01      0.351662500179E-02     -0.709262643888E-01
     atom #   28    pol.  2
      0.272019935833E+01     -0.590624310317E-02      0.915110305307E-03
     -0.590624310317E-02     -0.250549136021E+01     -0.139753121989E-01
      0.915110305307E-03     -0.139753121989E-01     -0.177541266783E+01
     atom #   28    pol.  3
      0.432605788977E-01      0.110522069030E-02     -0.135046272713E-01
      0.110522069030E-02      0.277383000408E-01     -0.809088850216E+00
     -0.135046272713E-01     -0.809088850216E+00      0.642096293515E-01
     atom #   29    pol.  1
     -0.256635473703E+01     -0.176724233970E-01      0.205083390574E-01
     -0.176724233970E-01      0.271505797651E+01     -0.595556751547E-02
      0.205083390574E-01     -0.595556751547E-02     -0.175411056234E+01
     atom #   29    pol.  2
     -0.908283360919E-01      0.353863609848E+01     -0.221154315758E-01
      0.353863609848E+01     -0.175564157242E+00      0.728969874308E-01
     -0.221154315758E-01      0.728969874308E-01     -0.307881248509E-01
     atom #   29    pol.  3
      0.354953990537E-02     -0.132648216003E-02     -0.819012812947E+00
     -0.132648216003E-02      0.495413968912E-01     -0.470053389337E-01
     -0.819012812947E+00     -0.470053389337E-01      0.111516471226E+00
     atom #   30    pol.  1
      0.251074260045E+01     -0.117822138047E-01     -0.270881587498E-01
     -0.117822138047E-01     -0.275946898070E+01      0.167555401276E-02
     -0.270881587498E-01      0.167555401276E-02      0.175607551649E+01
     atom #   30    pol.  2
     -0.572807423952E-01     -0.358177135993E+01      0.218476478714E-01
     -0.358177135993E+01     -0.132611453296E+00      0.488171453480E-01
      0.218476478714E-01      0.488171453480E-01     -0.111135530401E+00
     atom #   30    pol.  3
     -0.116943903183E-01      0.244616414750E-02      0.820653321466E+00
      0.244616414750E-02      0.662612430268E-01      0.147491420757E-01
      0.820653321466E+00      0.147491420757E-01      0.534430196142E-01
     atom #   31    pol.  1
      0.251119642315E+01     -0.117111395277E-01     -0.269324856209E-01
     -0.117111395277E-01     -0.275982723077E+01      0.148792425028E-02
     -0.269324856209E-01      0.148792425028E-02      0.175629547368E+01
     atom #   31    pol.  2
     -0.569476270108E-01     -0.358158315156E+01      0.217642427229E-01
     -0.358158315156E+01     -0.132791583351E+00      0.488670375249E-01
      0.217642427229E-01      0.488670375249E-01     -0.110717229416E+00
     atom #   31    pol.  3
     -0.118056832243E-01      0.214500552199E-02      0.820485915206E+00
      0.214500552199E-02      0.660736725980E-01      0.143176708324E-01
      0.820485915206E+00      0.143176708324E-01      0.535688799301E-01
     atom #   32    pol.  1
     -0.256729714614E+01     -0.173010255257E-01      0.203293511142E-01
     -0.173010255257E-01      0.271645848979E+01     -0.581534345983E-02
      0.203293511142E-01     -0.581534345983E-02     -0.175371681049E+01
     atom #   32    pol.  2
     -0.911021055109E-01      0.353851658404E+01     -0.220821029355E-01
      0.353851658404E+01     -0.174766900333E+00      0.728554405231E-01
     -0.220821029355E-01      0.728554405231E-01     -0.310018703738E-01
     atom #   32    pol.  3
      0.361146209387E-02     -0.108554167863E-02     -0.818681398782E+00
     -0.108554167863E-02      0.496424222042E-01     -0.468443095330E-01
     -0.818681398782E+00     -0.468443095330E-01      0.111473194174E+00
     atom #   33    pol.  1
     -0.157091161057E-01      0.178151486594E-01      0.433121841866E-01
      0.178151486594E-01      0.118583952641E-01     -0.323250261130E+00
      0.433121841866E-01     -0.323250261130E+00     -0.484341238677E-01
     atom #   33    pol.  2
      0.209598000026E-01      0.494816467875E-02      0.312713100669E+00
      0.494816467875E-02     -0.518005923903E-01      0.436134553768E-01
      0.312713100669E+00      0.436134553768E-01     -0.387911417978E-01
     atom #   33    pol.  3
      0.206656795254E+00      0.474352204233E-02     -0.316286031084E-02
      0.474352204233E-02      0.203020444387E+00     -0.373189501887E-01
     -0.316286031084E-02     -0.373189501887E-01      0.447368528668E+00
     atom #   34    pol.  1
     -0.391692778716E-01     -0.147701855040E-01      0.461142160780E-01
     -0.147701855040E-01     -0.102311574332E-01      0.325974103776E+00
      0.461142160780E-01      0.325974103776E+00      0.709640323242E-02
     atom #   34    pol.  2
     -0.174337824012E-01     -0.271150202877E-02     -0.311498516381E+00
     -0.271150202877E-02     -0.357982675213E-02      0.484379288875E-01
     -0.311498516381E+00      0.484379288875E-01     -0.609577759954E-02
     atom #   34    pol.  3
      0.171410014738E+00     -0.427298874800E-02     -0.367179675039E-01
     -0.427298874800E-02      0.179024729377E+00     -0.517051813725E-02
     -0.367179675039E-01     -0.517051813725E-02      0.397765698707E+00
     atom #   35    pol.  1
     -0.157831306500E-01      0.179042125527E-01      0.431008624843E-01
      0.179042125527E-01      0.119412252333E-01     -0.323258079168E+00
      0.431008624843E-01     -0.323258079168E+00     -0.487088156971E-01
     atom #   35    pol.  2
      0.209195809550E-01      0.489181202950E-02      0.312783482243E+00
      0.489181202950E-02     -0.518957534489E-01      0.435959047392E-01
      0.312783482243E+00      0.435959047392E-01     -0.387176191312E-01
     atom #   35    pol.  3
      0.205680436041E+00      0.461027884629E-02     -0.371441485510E-02
      0.461027884629E-02      0.202185975560E+00     -0.374199111274E-01
     -0.371441485510E-02     -0.374199111274E-01      0.445510568213E+00
     atom #   36    pol.  1
     -0.392254686184E-01     -0.146932607368E-01      0.459509836555E-01
     -0.146932607368E-01     -0.102605535904E-01      0.326010162877E+00
      0.459509836555E-01      0.326010162877E+00      0.691875136548E-02
     atom #   36    pol.  2
     -0.173921420419E-01     -0.268568514180E-02     -0.311484789302E+00
     -0.268568514180E-02     -0.373196552710E-02      0.484171103407E-01
     -0.311484789302E+00      0.484171103407E-01     -0.603349129613E-02
     atom #   36    pol.  3
      0.170590101145E+00     -0.437470063593E-02     -0.365972241180E-01
     -0.437470063593E-02      0.178243902586E+00     -0.517485331056E-02
     -0.365972241180E-01     -0.517485331056E-02      0.396009472796E+00
     atom #   37    pol.  1
     -0.158449719581E-01      0.176936602116E-01      0.430928794303E-01
      0.176936602116E-01      0.118504004152E-01     -0.323190308324E+00
      0.430928794303E-01     -0.323190308324E+00     -0.486666222971E-01
     atom #   37    pol.  2
      0.209475296059E-01      0.495930684904E-02      0.312788074595E+00
      0.495930684904E-02     -0.517909386933E-01      0.436252563460E-01
      0.312788074595E+00      0.436252563460E-01     -0.387479516988E-01
     atom #   37    pol.  3
      0.206041486297E+00      0.471908121001E-02     -0.372500919410E-02
      0.471908121001E-02      0.202640443013E+00     -0.375749727323E-01
     -0.372500919410E-02     -0.375749727323E-01      0.446299375362E+00
     atom #   38    pol.  1
     -0.393951719306E-01     -0.146777288660E-01      0.459418077938E-01
     -0.146777288660E-01     -0.102498436491E-01      0.325899031444E+00
      0.459418077938E-01      0.325899031444E+00      0.693442545514E-02
     atom #   38    pol.  2
     -0.174015369194E-01     -0.264307133290E-02     -0.311570935764E+00
     -0.264307133290E-02     -0.349614988582E-02      0.484796801876E-01
     -0.311570935764E+00      0.484796801876E-01     -0.607366395404E-02
     atom #   38    pol.  3
      0.170994936259E+00     -0.424234098546E-02     -0.364367018093E-01
     -0.424234098546E-02      0.178567827577E+00     -0.481719419838E-02
     -0.364367018093E-01     -0.481719419838E-02      0.396821096945E+00
     atom #   39    pol.  1
     -0.155768427675E-01      0.177882225805E-01      0.433149278766E-01
      0.177882225805E-01      0.118879935622E-01     -0.323210525116E+00
      0.433149278766E-01     -0.323210525116E+00     -0.484767323945E-01
     atom #   39    pol.  2
      0.208984918124E-01      0.487642101637E-02      0.312803131376E+00
      0.487642101637E-02     -0.519250232244E-01      0.437177012798E-01
      0.312803131376E+00      0.437177012798E-01     -0.386305372627E-01
     atom #   39    pol.  3
      0.206805750518E+00      0.456877907940E-02     -0.330786010362E-02
      0.456877907940E-02      0.203265155058E+00     -0.376643039552E-01
     -0.330786010362E-02     -0.376643039552E-01      0.447643383381E+00
     atom #   40    pol.  1
     -0.390946135698E-01     -0.145892946115E-01      0.462088645165E-01
     -0.145892946115E-01     -0.102063191453E-01      0.325966035755E+00
      0.462088645165E-01      0.325966035755E+00      0.708254015714E-02
     atom #   40    pol.  2
     -0.174013421392E-01     -0.275087829045E-02     -0.311507921078E+00
     -0.275087829045E-02     -0.364281890525E-02      0.485500064455E-01
     -0.311507921078E+00      0.485500064455E-01     -0.598031891742E-02
     atom #   40    pol.  3
      0.171526767664E+00     -0.434033745254E-02     -0.367024483146E-01
     -0.434033745254E-02      0.179100260459E+00     -0.487286891269E-02
     -0.367024483146E-01     -0.487286891269E-02      0.398091908072E+00


     Representation # 38 mode #  38

     Self-consistent Calculation

      iter #   1 total cpu time :    74.5 secs   av.it.:   9.9
      thresh= 1.000E-02 alpha_mix =  0.700 |ddv_scf|^2 =  1.696E-06

      iter #   2 total cpu time :   101.8 secs   av.it.:  20.4
      thresh= 1.302E-04 alpha_mix =  0.700 |ddv_scf|^2 =  6.232E-06

      iter #   3 total cpu time :   134.9 secs   av.it.:  17.5
      thresh= 2.496E-04 alpha_mix =  0.700 |ddv_scf|^2 =  1.309E-07

      iter #   4 total cpu time :   154.1 secs   av.it.:  18.8
      thresh= 3.619E-05 alpha_mix =  0.700 |ddv_scf|^2 =  1.419E-08

      iter #   5 total cpu time :   166.7 secs   av.it.:  17.9
      thresh= 1.191E-05 alpha_mix =  0.700 |ddv_scf|^2 =  9.682E-10

      iter #   6 total cpu time :   204.1 secs   av.it.:  18.8
      thresh= 3.112E-06 alpha_mix =  0.700 |ddv_scf|^2 =  5.820E-11

      iter #   7 total cpu time :   216.2 secs   av.it.:  18.8
      thresh= 7.629E-07 alpha_mix =  0.700 |ddv_scf|^2 =  2.307E-11

      iter #   8 total cpu time :   228.2 secs   av.it.:  18.2
      thresh= 4.803E-07 alpha_mix =  0.700 |ddv_scf|^2 =  2.788E-13

      iter #   9 total cpu time :   241.2 secs   av.it.:  20.0
      thresh= 5.281E-08 alpha_mix =  0.700 |ddv_scf|^2 =  9.532E-14

      iter #  10 total cpu time :   284.1 secs   av.it.:  19.5
      thresh= 3.087E-08 alpha_mix =  0.700 |ddv_scf|^2 =  3.903E-14

      iter #  11 total cpu time :   303.6 secs   av.it.:  19.0
      thresh= 1.976E-08 alpha_mix =  0.700 |ddv_scf|^2 =  2.096E-14

      iter #  12 total cpu time :   316.2 secs   av.it.:  18.8
      thresh= 1.448E-08 alpha_mix =  0.700 |ddv_scf|^2 =  1.073E-14

      iter #  13 total cpu time :   334.8 secs   av.it.:  17.6
      thresh= 1.036E-08 alpha_mix =  0.700 |ddv_scf|^2 =  7.558E-16

      iter #  14 total cpu time :   372.2 secs   av.it.:  18.2
      thresh= 2.749E-09 alpha_mix =  0.700 |ddv_scf|^2 =  4.245E-17

     End of self-consistent calculation

     Convergence has been achieved 


     Representation # 39 mode #  39

     Self-consistent Calculation

      iter #   1 total cpu time :   461.0 secs   av.it.:   9.8
      thresh= 1.000E-02 alpha_mix =  0.700 |ddv_scf|^2 =  1.717E-06

      iter #   2 total cpu time :   475.0 secs   av.it.:  20.1
      thresh= 1.310E-04 alpha_mix =  0.700 |ddv_scf|^2 =  6.338E-06

      iter #   3 total cpu time :   487.0 secs   av.it.:  17.1
      thresh= 2.517E-04 alpha_mix =  0.700 |ddv_scf|^2 =  1.304E-07

      iter #   4 total cpu time :   521.9 secs   av.it.:  18.5
      thresh= 3.611E-05 alpha_mix =  0.700 |ddv_scf|^2 =  1.439E-08

      iter #   5 total cpu time :   534.8 secs   av.it.:  17.8
      thresh= 1.200E-05 alpha_mix =  0.700 |ddv_scf|^2 =  1.014E-09

      iter #   6 total cpu time :   552.3 secs   av.it.:  18.1
      thresh= 3.184E-06 alpha_mix =  0.700 |ddv_scf|^2 =  6.204E-11

      iter #   7 total cpu time :   570.3 secs   av.it.:  18.8
      thresh= 7.877E-07 alpha_mix =  0.700 |ddv_scf|^2 =  2.216E-11

      iter #   8 total cpu time :   603.6 secs   av.it.:  17.9
      thresh= 4.708E-07 alpha_mix =  0.700 |ddv_scf|^2 =  3.259E-13

      iter #   9 total cpu time :   618.3 secs   av.it.:  19.8
      thresh= 5.708E-08 alpha_mix =  0.700 |ddv_scf|^2 =  1.276E-13

      iter #  10 total cpu time :   667.4 secs   av.it.:  19.0
      thresh= 3.573E-08 alpha_mix =  0.700 |ddv_scf|^2 =  7.111E-14

      iter #  11 total cpu time :   680.0 secs   av.it.:  18.8
      thresh= 2.667E-08 alpha_mix =  0.700 |ddv_scf|^2 =  2.396E-14

      iter #  12 total cpu time :   693.0 secs   av.it.:  18.8
      thresh= 1.548E-08 alpha_mix =  0.700 |ddv_scf|^2 =  1.410E-14

      iter #  13 total cpu time :   712.0 secs   av.it.:  17.4
      thresh= 1.187E-08 alpha_mix =  0.700 |ddv_scf|^2 =  9.178E-16

      iter #  14 total cpu time :   754.8 secs   av.it.:  17.9
      thresh= 3.030E-09 alpha_mix =  0.700 |ddv_scf|^2 =  4.317E-17

     End of self-consistent calculation

     Convergence has been achieved 


     Representation # 40 mode #  40

     Self-consistent Calculation

      iter #   1 total cpu time :   764.2 secs   av.it.:   9.9
      thresh= 1.000E-02 alpha_mix =  0.700 |ddv_scf|^2 =  1.695E-06

      iter #   2 total cpu time :   817.9 secs   av.it.:  20.4
      thresh= 1.302E-04 alpha_mix =  0.700 |ddv_scf|^2 =  6.232E-06

      iter #   3 total cpu time :   829.7 secs   av.it.:  17.5
      thresh= 2.496E-04 alpha_mix =  0.700 |ddv_scf|^2 =  1.309E-07

      iter #   4 total cpu time :   843.2 secs   av.it.:  18.8
      thresh= 3.619E-05 alpha_mix =  0.700 |ddv_scf|^2 =  1.419E-08

      iter #   5 total cpu time :   892.0 secs   av.it.:  17.9
      thresh= 1.191E-05 alpha_mix =  0.700 |ddv_scf|^2 =  9.681E-10

      iter #   6 total cpu time :   904.7 secs   av.it.:  18.8
      thresh= 3.111E-06 alpha_mix =  0.700 |ddv_scf|^2 =  5.821E-11

      iter #   7 total cpu time :   918.4 secs   av.it.:  18.8
      thresh= 7.630E-07 alpha_mix =  0.700 |ddv_scf|^2 =  2.307E-11

      iter #   8 total cpu time :   937.5 secs   av.it.:  18.2
      thresh= 4.803E-07 alpha_mix =  0.700 |ddv_scf|^2 =  2.788E-13

      iter #   9 total cpu time :   967.9 secs   av.it.:  20.0
      thresh= 5.280E-08 alpha_mix =  0.700 |ddv_scf|^2 =  9.555E-14

      iter #  10 total cpu time :   980.8 secs   av.it.:  19.5
      thresh= 3.091E-08 alpha_mix =  0.700 |ddv_scf|^2 =  3.939E-14

      iter #  11 total cpu time :   993.4 secs   av.it.:  19.0
      thresh= 1.985E-08 alpha_mix =  0.700 |ddv_scf|^2 =  2.101E-14

      iter #  12 total cpu time :  1016.4 secs   av.it.:  18.8
      thresh= 1.449E-08 alpha_mix =  0.700 |ddv_scf|^2 =  1.079E-14

      iter #  13 total cpu time :  1057.7 secs   av.it.:  17.7
      thresh= 1.039E-08 alpha_mix =  0.700 |ddv_scf|^2 =  7.586E-16

      iter #  14 total cpu time :  1070.1 secs   av.it.:  18.2
      thresh= 2.754E-09 alpha_mix =  0.700 |ddv_scf|^2 =  4.251E-17

     End of self-consistent calculation

     Convergence has been achieved 


     Representation # 41 mode #  41

     Self-consistent Calculation

      iter #   1 total cpu time :  1081.4 secs   av.it.:   9.8
      thresh= 1.000E-02 alpha_mix =  0.700 |ddv_scf|^2 =  1.695E-06

      iter #   2 total cpu time :  1131.8 secs   av.it.:  20.4
      thresh= 1.302E-04 alpha_mix =  0.700 |ddv_scf|^2 =  6.232E-06

      iter #   3 total cpu time :  1143.6 secs   av.it.:  17.5
      thresh= 2.496E-04 alpha_mix =  0.700 |ddv_scf|^2 =  1.310E-07

      iter #   4 total cpu time :  1156.1 secs   av.it.:  18.8
      thresh= 3.619E-05 alpha_mix =  0.700 |ddv_scf|^2 =  1.419E-08

      iter #   5 total cpu time :  1171.0 secs   av.it.:  17.9
      thresh= 1.191E-05 alpha_mix =  0.700 |ddv_scf|^2 =  9.681E-10

      iter #   6 total cpu time :  1211.5 secs   av.it.:  18.7
      thresh= 3.111E-06 alpha_mix =  0.700 |ddv_scf|^2 =  5.822E-11

      iter #   7 total cpu time :  1223.9 secs   av.it.:  18.8
      thresh= 7.630E-07 alpha_mix =  0.700 |ddv_scf|^2 =  2.307E-11

      iter #   8 total cpu time :  1236.8 secs   av.it.:  18.2
      thresh= 4.804E-07 alpha_mix =  0.700 |ddv_scf|^2 =  2.792E-13

      iter #   9 total cpu time :  1252.8 secs   av.it.:  20.0
      thresh= 5.284E-08 alpha_mix =  0.700 |ddv_scf|^2 =  9.720E-14

      iter #  10 total cpu time :  1288.5 secs   av.it.:  19.5
      thresh= 3.118E-08 alpha_mix =  0.700 |ddv_scf|^2 =  4.172E-14

      iter #  11 total cpu time :  1303.0 secs   av.it.:  19.0
      thresh= 2.043E-08 alpha_mix =  0.700 |ddv_scf|^2 =  2.142E-14

      iter #  12 total cpu time :  1322.5 secs   av.it.:  18.8
      thresh= 1.463E-08 alpha_mix =  0.700 |ddv_scf|^2 =  1.104E-14

      iter #  13 total cpu time :  1375.4 secs   av.it.:  17.7
      thresh= 1.051E-08 alpha_mix =  0.700 |ddv_scf|^2 =  7.771E-16

      iter #  14 total cpu time :  1392.3 secs   av.it.:  18.1
      thresh= 2.788E-09 alpha_mix =  0.700 |ddv_scf|^2 =  4.253E-17

     End of self-consistent calculation

     Convergence has been achieved 


     Representation # 42 mode #  42

     Self-consistent Calculation

      iter #   1 total cpu time :  1404.5 secs   av.it.:   9.8
      thresh= 1.000E-02 alpha_mix =  0.700 |ddv_scf|^2 =  1.717E-06

      iter #   2 total cpu time :  1444.4 secs   av.it.:  20.1
      thresh= 1.310E-04 alpha_mix =  0.700 |ddv_scf|^2 =  6.338E-06

      iter #   3 total cpu time :  1455.9 secs   av.it.:  17.1
      thresh= 2.517E-04 alpha_mix =  0.700 |ddv_scf|^2 =  1.304E-07

      iter #   4 total cpu time :  1471.7 secs   av.it.:  18.5
      thresh= 3.611E-05 alpha_mix =  0.700 |ddv_scf|^2 =  1.439E-08

      iter #   5 total cpu time :  1521.7 secs   av.it.:  17.8
      thresh= 1.200E-05 alpha_mix =  0.700 |ddv_scf|^2 =  1.014E-09

      iter #   6 total cpu time :  1535.1 secs   av.it.:  18.1
      thresh= 3.184E-06 alpha_mix =  0.700 |ddv_scf|^2 =  6.204E-11

      iter #   7 total cpu time :  1548.0 secs   av.it.:  18.8
      thresh= 7.876E-07 alpha_mix =  0.700 |ddv_scf|^2 =  2.216E-11

      iter #   8 total cpu time :  1578.2 secs   av.it.:  18.0
      thresh= 4.708E-07 alpha_mix =  0.700 |ddv_scf|^2 =  3.258E-13

      iter #   9 total cpu time :  1609.0 secs   av.it.:  19.8
      thresh= 5.708E-08 alpha_mix =  0.700 |ddv_scf|^2 =  1.277E-13

      iter #  10 total cpu time :  1622.9 secs   av.it.:  19.0
      thresh= 3.573E-08 alpha_mix =  0.700 |ddv_scf|^2 =  7.111E-14

      iter #  11 total cpu time :  1636.4 secs   av.it.:  18.8
      thresh= 2.667E-08 alpha_mix =  0.700 |ddv_scf|^2 =  2.396E-14

      iter #  12 total cpu time :  1678.9 secs   av.it.:  18.8
      thresh= 1.548E-08 alpha_mix =  0.700 |ddv_scf|^2 =  1.410E-14

      iter #  13 total cpu time :  1694.9 secs   av.it.:  17.4
      thresh= 1.187E-08 alpha_mix =  0.700 |ddv_scf|^2 =  9.180E-16

      iter #  14 total cpu time :  1712.1 secs   av.it.:  17.9
      thresh= 3.030E-09 alpha_mix =  0.700 |ddv_scf|^2 =  4.318E-17

     End of self-consistent calculation

     Convergence has been achieved 


     Representation # 43 mode #  43

     Self-consistent Calculation

      iter #   1 total cpu time :  1745.2 secs   av.it.:   9.8
      thresh= 1.000E-02 alpha_mix =  0.700 |ddv_scf|^2 =  1.695E-06

      iter #   2 total cpu time :  1763.1 secs   av.it.:  20.4
      thresh= 1.302E-04 alpha_mix =  0.700 |ddv_scf|^2 =  6.232E-06

      iter #   3 total cpu time :  1813.0 secs   av.it.:  17.5
      thresh= 2.496E-04 alpha_mix =  0.700 |ddv_scf|^2 =  1.310E-07

      iter #   4 total cpu time :  1825.5 secs   av.it.:  18.8
      thresh= 3.619E-05 alpha_mix =  0.700 |ddv_scf|^2 =  1.419E-08

      iter #   5 total cpu time :  1839.9 secs   av.it.:  17.9
      thresh= 1.191E-05 alpha_mix =  0.700 |ddv_scf|^2 =  9.680E-10

      iter #   6 total cpu time :  1895.4 secs   av.it.:  18.7
      thresh= 3.111E-06 alpha_mix =  0.700 |ddv_scf|^2 =  5.822E-11

      iter #   7 total cpu time :  1907.8 secs   av.it.:  18.8
      thresh= 7.630E-07 alpha_mix =  0.700 |ddv_scf|^2 =  2.307E-11

      iter #   8 total cpu time :  1960.0 secs   av.it.:  18.2
      thresh= 4.804E-07 alpha_mix =  0.700 |ddv_scf|^2 =  2.792E-13

      iter #   9 total cpu time :  1974.0 secs   av.it.:  20.0
      thresh= 5.284E-08 alpha_mix =  0.700 |ddv_scf|^2 =  9.731E-14

      iter #  10 total cpu time :  1987.1 secs   av.it.:  19.5
      thresh= 3.119E-08 alpha_mix =  0.700 |ddv_scf|^2 =  4.184E-14

      iter #  11 total cpu time :  2019.5 secs   av.it.:  19.0
      thresh= 2.045E-08 alpha_mix =  0.700 |ddv_scf|^2 =  2.143E-14

      iter #  12 total cpu time :  2047.5 secs   av.it.:  18.8
      thresh= 1.464E-08 alpha_mix =  0.700 |ddv_scf|^2 =  1.106E-14

      iter #  13 total cpu time :  2059.2 secs   av.it.:  17.7
      thresh= 1.051E-08 alpha_mix =  0.700 |ddv_scf|^2 =  7.780E-16

      iter #  14 total cpu time :  2074.8 secs   av.it.:  18.1
      thresh= 2.789E-09 alpha_mix =  0.700 |ddv_scf|^2 =  4.255E-17

     End of self-consistent calculation

     Convergence has been achieved 


     Representation # 44 mode #  44

     Self-consistent Calculation

      iter #   1 total cpu time :  2121.4 secs   av.it.:   9.9
      thresh= 1.000E-02 alpha_mix =  0.700 |ddv_scf|^2 =  1.695E-06

      iter #   2 total cpu time :  2135.2 secs   av.it.:  20.4
      thresh= 1.302E-04 alpha_mix =  0.700 |ddv_scf|^2 =  6.232E-06

      iter #   3 total cpu time :  2147.2 secs   av.it.:  17.5
      thresh= 2.496E-04 alpha_mix =  0.700 |ddv_scf|^2 =  1.309E-07

      iter #   4 total cpu time :  2188.5 secs   av.it.:  18.8
      thresh= 3.619E-05 alpha_mix =  0.700 |ddv_scf|^2 =  1.419E-08

      iter #   5 total cpu time :  2200.6 secs   av.it.:  17.9
      thresh= 1.191E-05 alpha_mix =  0.700 |ddv_scf|^2 =  9.681E-10

      iter #   6 total cpu time :  2213.2 secs   av.it.:  18.8
      thresh= 3.111E-06 alpha_mix =  0.700 |ddv_scf|^2 =  5.821E-11

      iter #   7 total cpu time :  2252.0 secs   av.it.:  18.8
      thresh= 7.630E-07 alpha_mix =  0.700 |ddv_scf|^2 =  2.307E-11

      iter #   8 total cpu time :  2265.1 secs   av.it.:  18.2
      thresh= 4.803E-07 alpha_mix =  0.700 |ddv_scf|^2 =  2.787E-13

      iter #   9 total cpu time :  2283.5 secs   av.it.:  20.0
      thresh= 5.280E-08 alpha_mix =  0.700 |ddv_scf|^2 =  9.536E-14

      iter #  10 total cpu time :  2323.6 secs   av.it.:  19.5
      thresh= 3.088E-08 alpha_mix =  0.700 |ddv_scf|^2 =  3.917E-14

      iter #  11 total cpu time :  2336.4 secs   av.it.:  19.0
      thresh= 1.979E-08 alpha_mix =  0.700 |ddv_scf|^2 =  2.098E-14

      iter #  12 total cpu time :  2348.7 secs   av.it.:  18.8
      thresh= 1.448E-08 alpha_mix =  0.700 |ddv_scf|^2 =  1.076E-14

      iter #  13 total cpu time :  2399.4 secs   av.it.:  17.7
      thresh= 1.037E-08 alpha_mix =  0.700 |ddv_scf|^2 =  7.567E-16

      iter #  14 total cpu time :  2412.1 secs   av.it.:  18.2
      thresh= 2.751E-09 alpha_mix =  0.700 |ddv_scf|^2 =  4.250E-17

     End of self-consistent calculation

     Convergence has been achieved 


     Representation # 45 mode #  45

     Self-consistent Calculation

      iter #   1 total cpu time :  2421.6 secs   av.it.:   9.8
      thresh= 1.000E-02 alpha_mix =  0.700 |ddv_scf|^2 =  1.717E-06

      iter #   2 total cpu time :  2439.6 secs   av.it.:  20.1
      thresh= 1.310E-04 alpha_mix =  0.700 |ddv_scf|^2 =  6.338E-06

      iter #   3 total cpu time :  2475.7 secs   av.it.:  17.1
      thresh= 2.517E-04 alpha_mix =  0.700 |ddv_scf|^2 =  1.304E-07

      iter #   4 total cpu time :  2488.7 secs   av.it.:  18.5
      thresh= 3.611E-05 alpha_mix =  0.700 |ddv_scf|^2 =  1.439E-08

      iter #   5 total cpu time :  2503.7 secs   av.it.:  17.8
      thresh= 1.200E-05 alpha_mix =  0.700 |ddv_scf|^2 =  1.014E-09

      iter #   6 total cpu time :  2516.4 secs   av.it.:  18.1
      thresh= 3.184E-06 alpha_mix =  0.700 |ddv_scf|^2 =  6.204E-11

      iter #   7 total cpu time :  2543.3 secs   av.it.:  18.8
      thresh= 7.876E-07 alpha_mix =  0.700 |ddv_scf|^2 =  2.216E-11

      iter #   8 total cpu time :  2582.1 secs   av.it.:  18.0
      thresh= 4.708E-07 alpha_mix =  0.700 |ddv_scf|^2 =  3.259E-13

      iter #   9 total cpu time :  2595.1 secs   av.it.:  19.8
      thresh= 5.709E-08 alpha_mix =  0.700 |ddv_scf|^2 =  1.280E-13

      iter #  10 total cpu time :  2607.7 secs   av.it.:  19.0
      thresh= 3.578E-08 alpha_mix =  0.700 |ddv_scf|^2 =  7.129E-14

      iter #  11 total cpu time :  2656.3 secs   av.it.:  18.8
      thresh= 2.670E-08 alpha_mix =  0.700 |ddv_scf|^2 =  2.396E-14

      iter #  12 total cpu time :  2671.8 secs   av.it.:  18.7
      thresh= 1.548E-08 alpha_mix =  0.700 |ddv_scf|^2 =  1.411E-14

      iter #  13 total cpu time :  2684.8 secs   av.it.:  17.4
      thresh= 1.188E-08 alpha_mix =  0.700 |ddv_scf|^2 =  9.186E-16

      iter #  14 total cpu time :  2700.7 secs   av.it.:  17.9
      thresh= 3.031E-09 alpha_mix =  0.700 |ddv_scf|^2 =  4.320E-17

     End of self-consistent calculation

     Convergence has been achieved 


     Representation # 46 mode #  46

     Self-consistent Calculation

      iter #   1 total cpu time :  2737.6 secs   av.it.:   9.9
      thresh= 1.000E-02 alpha_mix =  0.700 |ddv_scf|^2 =  1.696E-06

      iter #   2 total cpu time :  2752.9 secs   av.it.:  20.4
      thresh= 1.302E-04 alpha_mix =  0.700 |ddv_scf|^2 =  6.232E-06

      iter #   3 total cpu time :  2799.9 secs   av.it.:  17.5
      thresh= 2.496E-04 alpha_mix =  0.700 |ddv_scf|^2 =  1.309E-07

      iter #   4 total cpu time :  2813.1 secs   av.it.:  18.8
      thresh= 3.619E-05 alpha_mix =  0.700 |ddv_scf|^2 =  1.419E-08

      iter #   5 total cpu time :  2825.3 secs   av.it.:  17.9
      thresh= 1.191E-05 alpha_mix =  0.700 |ddv_scf|^2 =  9.682E-10

      iter #   6 total cpu time :  2842.0 secs   av.it.:  18.8
      thresh= 3.112E-06 alpha_mix =  0.700 |ddv_scf|^2 =  5.820E-11

      iter #   7 total cpu time :  2878.4 secs   av.it.:  18.8
      thresh= 7.629E-07 alpha_mix =  0.700 |ddv_scf|^2 =  2.307E-11

      iter #   8 total cpu time :  2890.9 secs   av.it.:  18.2
      thresh= 4.803E-07 alpha_mix =  0.700 |ddv_scf|^2 =  2.789E-13

      iter #   9 total cpu time :  2903.9 secs   av.it.:  20.0
      thresh= 5.281E-08 alpha_mix =  0.700 |ddv_scf|^2 =  9.555E-14

      iter #  10 total cpu time :  2924.5 secs   av.it.:  19.5
      thresh= 3.091E-08 alpha_mix =  0.700 |ddv_scf|^2 =  3.932E-14

      iter #  11 total cpu time :  2950.6 secs   av.it.:  19.0
      thresh= 1.983E-08 alpha_mix =  0.700 |ddv_scf|^2 =  2.100E-14

      iter #  12 total cpu time :  2963.2 secs   av.it.:  18.8
      thresh= 1.449E-08 alpha_mix =  0.700 |ddv_scf|^2 =  1.077E-14

      iter #  13 total cpu time :  2975.3 secs   av.it.:  17.6
      thresh= 1.038E-08 alpha_mix =  0.700 |ddv_scf|^2 =  7.582E-16

      iter #  14 total cpu time :  2993.0 secs   av.it.:  18.2
      thresh= 2.753E-09 alpha_mix =  0.700 |ddv_scf|^2 =  4.247E-17

     End of self-consistent calculation

     Convergence has been achieved 


     Representation # 47 mode #  47

     Self-consistent Calculation

      iter #   1 total cpu time :  3035.0 secs   av.it.:   9.9
      thresh= 1.000E-02 alpha_mix =  0.700 |ddv_scf|^2 =  1.695E-06

      iter #   2 total cpu time :  3051.2 secs   av.it.:  20.4
      thresh= 1.302E-04 alpha_mix =  0.700 |ddv_scf|^2 =  6.232E-06

      iter #   3 total cpu time :  3088.6 secs   av.it.:  17.5
      thresh= 2.496E-04 alpha_mix =  0.700 |ddv_scf|^2 =  1.310E-07

      iter #   4 total cpu time :  3100.7 secs   av.it.:  18.8
      thresh= 3.619E-05 alpha_mix =  0.700 |ddv_scf|^2 =  1.419E-08

      iter #   5 total cpu time :  3112.6 secs   av.it.:  17.9
      thresh= 1.191E-05 alpha_mix =  0.700 |ddv_scf|^2 =  9.680E-10

      iter #   6 total cpu time :  3130.6 secs   av.it.:  18.7
      thresh= 3.111E-06 alpha_mix =  0.700 |ddv_scf|^2 =  5.822E-11

      iter #   7 total cpu time :  3143.1 secs   av.it.:  18.8
      thresh= 7.630E-07 alpha_mix =  0.700 |ddv_scf|^2 =  2.307E-11

      iter #   8 total cpu time :  3179.8 secs   av.it.:  18.2
      thresh= 4.803E-07 alpha_mix =  0.700 |ddv_scf|^2 =  2.791E-13

      iter #   9 total cpu time :  3192.8 secs   av.it.:  20.0
      thresh= 5.283E-08 alpha_mix =  0.700 |ddv_scf|^2 =  9.709E-14

      iter #  10 total cpu time :  3235.4 secs   av.it.:  19.5
      thresh= 3.116E-08 alpha_mix =  0.700 |ddv_scf|^2 =  4.163E-14

      iter #  11 total cpu time :  3248.5 secs   av.it.:  19.0
      thresh= 2.040E-08 alpha_mix =  0.700 |ddv_scf|^2 =  2.141E-14

      iter #  12 total cpu time :  3266.9 secs   av.it.:  18.8
      thresh= 1.463E-08 alpha_mix =  0.700 |ddv_scf|^2 =  1.103E-14

      iter #  13 total cpu time :  3306.4 secs   av.it.:  17.7
      thresh= 1.050E-08 alpha_mix =  0.700 |ddv_scf|^2 =  7.764E-16

      iter #  14 total cpu time :  3318.8 secs   av.it.:  18.1
      thresh= 2.786E-09 alpha_mix =  0.700 |ddv_scf|^2 =  4.256E-17

     End of self-consistent calculation

     Convergence has been achieved 


     Representation # 48 mode #  48

     Self-consistent Calculation

      iter #   1 total cpu time :  3327.8 secs   av.it.:   9.8
      thresh= 1.000E-02 alpha_mix =  0.700 |ddv_scf|^2 =  1.717E-06

      iter #   2 total cpu time :  3383.4 secs   av.it.:  20.1
      thresh= 1.310E-04 alpha_mix =  0.700 |ddv_scf|^2 =  6.337E-06

      iter #   3 total cpu time :  3395.0 secs   av.it.:  17.1
      thresh= 2.517E-04 alpha_mix =  0.700 |ddv_scf|^2 =  1.304E-07

      iter #   4 total cpu time :  3407.1 secs   av.it.:  18.5
      thresh= 3.611E-05 alpha_mix =  0.700 |ddv_scf|^2 =  1.439E-08

      iter #   5 total cpu time :  3435.8 secs   av.it.:  17.8
      thresh= 1.200E-05 alpha_mix =  0.700 |ddv_scf|^2 =  1.014E-09

      iter #   6 total cpu time :  3473.1 secs   av.it.:  18.1
      thresh= 3.184E-06 alpha_mix =  0.700 |ddv_scf|^2 =  6.204E-11

      iter #   7 total cpu time :  3485.8 secs   av.it.:  18.8
      thresh= 7.877E-07 alpha_mix =  0.700 |ddv_scf|^2 =  2.216E-11

      iter #   8 total cpu time :  3518.0 secs   av.it.:  18.0
      thresh= 4.708E-07 alpha_mix =  0.700 |ddv_scf|^2 =  3.260E-13

      iter #   9 total cpu time :  3549.2 secs   av.it.:  19.8
      thresh= 5.709E-08 alpha_mix =  0.700 |ddv_scf|^2 =  1.280E-13

      iter #  10 total cpu time :  3561.9 secs   av.it.:  19.0
      thresh= 3.578E-08 alpha_mix =  0.700 |ddv_scf|^2 =  7.129E-14

      iter #  11 total cpu time :  3574.7 secs   av.it.:  18.8
      thresh= 2.670E-08 alpha_mix =  0.700 |ddv_scf|^2 =  2.396E-14

      iter #  12 total cpu time :  3593.3 secs   av.it.:  18.7
      thresh= 1.548E-08 alpha_mix =  0.700 |ddv_scf|^2 =  1.411E-14

      iter #  13 total cpu time :  3628.6 secs   av.it.:  17.4
      thresh= 1.188E-08 alpha_mix =  0.700 |ddv_scf|^2 =  9.184E-16

      iter #  14 total cpu time :  3641.2 secs   av.it.:  17.9
      thresh= 3.031E-09 alpha_mix =  0.700 |ddv_scf|^2 =  4.320E-17

     End of self-consistent calculation

     Convergence has been achieved 


     Representation # 49 mode #  49

     Self-consistent Calculation

      iter #   1 total cpu time :  3649.4 secs   av.it.:   8.0
      thresh= 1.000E-02 alpha_mix =  0.700 |ddv_scf|^2 =  3.682E-07

      iter #   2 total cpu time :  3671.1 secs   av.it.:  19.9
      thresh= 6.068E-05 alpha_mix =  0.700 |ddv_scf|^2 =  8.803E-07

      iter #   3 total cpu time :  3721.2 secs   av.it.:  17.8
      thresh= 9.382E-05 alpha_mix =  0.700 |ddv_scf|^2 =  6.483E-08

      iter #   4 total cpu time :  3738.6 secs   av.it.:  18.0
      thresh= 2.546E-05 alpha_mix =  0.700 |ddv_scf|^2 =  3.028E-09

      iter #   5 total cpu time :  3787.5 secs   av.it.:  18.5
      thresh= 5.503E-06 alpha_mix =  0.700 |ddv_scf|^2 =  8.381E-10

      iter #   6 total cpu time :  3799.4 secs   av.it.:  18.0
      thresh= 2.895E-06 alpha_mix =  0.700 |ddv_scf|^2 =  1.349E-11

      iter #   7 total cpu time :  3812.3 secs   av.it.:  19.6
      thresh= 3.673E-07 alpha_mix =  0.700 |ddv_scf|^2 =  3.917E-12

      iter #   8 total cpu time :  3873.7 secs   av.it.:  18.9
      thresh= 1.979E-07 alpha_mix =  0.700 |ddv_scf|^2 =  6.703E-13

      iter #   9 total cpu time :  3888.9 secs   av.it.:  18.4
      thresh= 8.187E-08 alpha_mix =  0.700 |ddv_scf|^2 =  9.897E-14

      iter #  10 total cpu time :  3908.9 secs   av.it.:  18.9
      thresh= 3.146E-08 alpha_mix =  0.700 |ddv_scf|^2 =  2.437E-14

      iter #  11 total cpu time :  3948.8 secs   av.it.:  18.9
      thresh= 1.561E-08 alpha_mix =  0.700 |ddv_scf|^2 =  2.418E-15

      iter #  12 total cpu time :  3962.0 secs   av.it.:  19.5
      thresh= 4.918E-09 alpha_mix =  0.700 |ddv_scf|^2 =  2.813E-15

      iter #  13 total cpu time :  3977.4 secs   av.it.:  18.1
      thresh= 5.303E-09 alpha_mix =  0.700 |ddv_scf|^2 =  7.793E-17

     End of self-consistent calculation

     Convergence has been achieved 


     Representation # 50 mode #  50

     Self-consistent Calculation

      iter #   1 total cpu time :  4024.3 secs   av.it.:   8.0
      thresh= 1.000E-02 alpha_mix =  0.700 |ddv_scf|^2 =  7.601E-07

      iter #   2 total cpu time :  4037.4 secs   av.it.:  20.5
      thresh= 8.718E-05 alpha_mix =  0.700 |ddv_scf|^2 =  3.822E-06

      iter #   3 total cpu time :  4050.0 secs   av.it.:  17.5
      thresh= 1.955E-04 alpha_mix =  0.700 |ddv_scf|^2 =  2.676E-08

      iter #   4 total cpu time :  4064.0 secs   av.it.:  19.5
      thresh= 1.636E-05 alpha_mix =  0.700 |ddv_scf|^2 =  1.302E-08

      iter #   5 total cpu time :  4102.0 secs   av.it.:  17.9
      thresh= 1.141E-05 alpha_mix =  0.700 |ddv_scf|^2 =  2.664E-10

      iter #   6 total cpu time :  4115.7 secs   av.it.:  19.5
      thresh= 1.632E-06 alpha_mix =  0.700 |ddv_scf|^2 =  8.762E-11

      iter #   7 total cpu time :  4129.9 secs   av.it.:  18.9
      thresh= 9.361E-07 alpha_mix =  0.700 |ddv_scf|^2 =  4.190E-12

      iter #   8 total cpu time :  4182.0 secs   av.it.:  18.9
      thresh= 2.047E-07 alpha_mix =  0.700 |ddv_scf|^2 =  1.324E-12

      iter #   9 total cpu time :  4195.7 secs   av.it.:  20.5
      thresh= 1.151E-07 alpha_mix =  0.700 |ddv_scf|^2 =  3.548E-12

      iter #  10 total cpu time :  4271.9 secs   av.it.:  18.0
      thresh= 1.884E-07 alpha_mix =  0.700 |ddv_scf|^2 =  2.083E-15

      iter #  11 total cpu time :  4285.6 secs   av.it.:  21.0
      thresh= 4.564E-09 alpha_mix =  0.700 |ddv_scf|^2 =  3.341E-15

      iter #  12 total cpu time :  4298.4 secs   av.it.:  18.9
      thresh= 5.780E-09 alpha_mix =  0.700 |ddv_scf|^2 =  4.649E-16

      iter #  13 total cpu time :  4350.3 secs   av.it.:  19.0
      thresh= 2.156E-09 alpha_mix =  0.700 |ddv_scf|^2 =  8.776E-17

     End of self-consistent calculation

     Convergence has been achieved 


     Representation # 51 mode #  51

     Self-consistent Calculation

      iter #   1 total cpu time :  4358.0 secs   av.it.:   8.0
      thresh= 1.000E-02 alpha_mix =  0.700 |ddv_scf|^2 =  3.700E-07

      iter #   2 total cpu time :  4371.5 secs   av.it.:  19.6
      thresh= 6.083E-05 alpha_mix =  0.700 |ddv_scf|^2 =  8.665E-07

      iter #   3 total cpu time :  4388.8 secs   av.it.:  17.0
      thresh= 9.309E-05 alpha_mix =  0.700 |ddv_scf|^2 =  6.601E-08

      iter #   4 total cpu time :  4432.7 secs   av.it.:  17.8
      thresh= 2.569E-05 alpha_mix =  0.700 |ddv_scf|^2 =  3.048E-09

      iter #   5 total cpu time :  4444.7 secs   av.it.:  17.9
      thresh= 5.521E-06 alpha_mix =  0.700 |ddv_scf|^2 =  7.566E-10

      iter #   6 total cpu time :  4457.5 secs   av.it.:  17.0
      thresh= 2.751E-06 alpha_mix =  0.700 |ddv_scf|^2 =  1.510E-11

      iter #   7 total cpu time :  4502.1 secs   av.it.:  18.0
      thresh= 3.886E-07 alpha_mix =  0.700 |ddv_scf|^2 =  1.896E-12

      iter #   8 total cpu time :  4513.9 secs   av.it.:  17.8
      thresh= 1.377E-07 alpha_mix =  0.700 |ddv_scf|^2 =  1.024E-13

      iter #   9 total cpu time :  4527.6 secs   av.it.:  18.6
      thresh= 3.200E-08 alpha_mix =  0.700 |ddv_scf|^2 =  7.921E-14

      iter #  10 total cpu time :  4545.6 secs   av.it.:  17.9
      thresh= 2.814E-08 alpha_mix =  0.700 |ddv_scf|^2 =  1.080E-15

      iter #  11 total cpu time :  4594.9 secs   av.it.:  20.0
      thresh= 3.286E-09 alpha_mix =  0.700 |ddv_scf|^2 =  7.265E-16

      iter #  12 total cpu time :  4611.3 secs   av.it.:  19.1
      thresh= 2.695E-09 alpha_mix =  0.700 |ddv_scf|^2 =  2.484E-16

      iter #  13 total cpu time :  4625.7 secs   av.it.:  18.4
      thresh= 1.576E-09 alpha_mix =  0.700 |ddv_scf|^2 =  6.896E-17

     End of self-consistent calculation

     Convergence has been achieved 


     Representation # 52 mode #  52

[...]
      Py  (       -0.00017       -2.03253       -0.00012 )
      Pz  (        0.00016        0.00045       -5.73996 )
           atom     40   O  
      Px  (       -2.03252       -0.00017       -0.00012 )
      Py  (        0.00019       -2.03251       -0.00017 )
      Pz  (        0.00045        0.00016       -5.73996 )

     Diagonalizing the dynamical matrix

     q = (    0.000000000   0.000000000   0.000000000 ) 

 **************************************************************************
     freq (    1) =      -0.377627 [THz] =     -12.596277 [cm-1]
     freq (    2) =      -0.374531 [THz] =     -12.493021 [cm-1]
     freq (    3) =      -0.350386 [THz] =     -11.687632 [cm-1]
     freq (    4) =       1.221604 [THz] =      40.748330 [cm-1]
     freq (    5) =       1.236150 [THz] =      41.233515 [cm-1]
     freq (    6) =       1.684940 [THz] =      56.203537 [cm-1]
     freq (    7) =       1.687430 [THz] =      56.286605 [cm-1]
     freq (    8) =       2.700089 [THz] =      90.065274 [cm-1]
     freq (    9) =       2.707373 [THz] =      90.308253 [cm-1]
     freq (   10) =       2.998961 [THz] =     100.034584 [cm-1]
     freq (   11) =       2.999267 [THz] =     100.044778 [cm-1]
     freq (   12) =       3.058030 [THz] =     102.004892 [cm-1]
     freq (   13) =       3.075148 [THz] =     102.575883 [cm-1]
     freq (   14) =       3.075823 [THz] =     102.598423 [cm-1]
     freq (   15) =       3.298058 [THz] =     110.011364 [cm-1]
     freq (   16) =       3.349730 [THz] =     111.734961 [cm-1]
     freq (   17) =       3.351012 [THz] =     111.777719 [cm-1]
     freq (   18) =       3.408433 [THz] =     113.693092 [cm-1]
     freq (   19) =       3.485156 [THz] =     116.252295 [cm-1]
     freq (   20) =       3.485166 [THz] =     116.252620 [cm-1]
     freq (   21) =       3.686582 [THz] =     122.971136 [cm-1]
     freq (   22) =       3.686587 [THz] =     122.971294 [cm-1]
     freq (   23) =       3.721884 [THz] =     124.148699 [cm-1]
     freq (   24) =       3.722074 [THz] =     124.155009 [cm-1]
     freq (   25) =       3.884548 [THz] =     129.574587 [cm-1]
     freq (   26) =       3.924284 [THz] =     130.900039 [cm-1]
     freq (   27) =       3.924675 [THz] =     130.913050 [cm-1]
     freq (   28) =       4.075617 [THz] =     135.947957 [cm-1]
     freq (   29) =       4.076703 [THz] =     135.984179 [cm-1]
     freq (   30) =       4.122262 [THz] =     137.503853 [cm-1]
     freq (   31) =       4.122484 [THz] =     137.511250 [cm-1]
     freq (   32) =       4.123492 [THz] =     137.544891 [cm-1]
     freq (   33) =       4.126950 [THz] =     137.660234 [cm-1]
     freq (   34) =       4.364798 [THz] =     145.593976 [cm-1]
     freq (   35) =       4.365077 [THz] =     145.603303 [cm-1]
     freq (   36) =       4.402817 [THz] =     146.862153 [cm-1]
     freq (   37) =       4.403235 [THz] =     146.876098 [cm-1]
     freq (   38) =       4.613407 [THz] =     153.886694 [cm-1]
     freq (   39) =       4.708443 [THz] =     157.056749 [cm-1]
     freq (   40) =       5.118301 [THz] =     170.728128 [cm-1]
     freq (   41) =       5.118323 [THz] =     170.728871 [cm-1]
     freq (   42) =       5.257418 [THz] =     175.368589 [cm-1]
     freq (   43) =       5.259014 [THz] =     175.421839 [cm-1]
     freq (   44) =       5.513261 [THz] =     183.902596 [cm-1]
     freq (   45) =       5.513642 [THz] =     183.915316 [cm-1]
     freq (   46) =       5.532317 [THz] =     184.538240 [cm-1]
     freq (   47) =       5.802871 [THz] =     193.562941 [cm-1]
     freq (   48) =       5.804771 [THz] =     193.626329 [cm-1]
     freq (   49) =       6.124956 [THz] =     204.306535 [cm-1]
     freq (   50) =       6.124972 [THz] =     204.307089 [cm-1]
     freq (   51) =       6.126338 [THz] =     204.352626 [cm-1]
     freq (   52) =       7.388123 [THz] =     246.441259 [cm-1]
     freq (   53) =       7.390889 [THz] =     246.533528 [cm-1]
     freq (   54) =       7.804822 [THz] =     260.340825 [cm-1]
     freq (   55) =       7.805644 [THz] =     260.368247 [cm-1]
     freq (   56) =       7.888322 [THz] =     263.126103 [cm-1]
     freq (   57) =       8.081108 [THz] =     269.556761 [cm-1]
     freq (   58) =       8.084203 [THz] =     269.659982 [cm-1]
     freq (   59) =       8.430493 [THz] =     281.210988 [cm-1]
     freq (   60) =       8.431606 [THz] =     281.248091 [cm-1]
     freq (   61) =       8.889207 [THz] =     296.512020 [cm-1]
     freq (   62) =       8.889534 [THz] =     296.522922 [cm-1]
     freq (   63) =       8.890317 [THz] =     296.549061 [cm-1]
     freq (   64) =       8.945214 [THz] =     298.380234 [cm-1]
     freq (   65) =       9.203836 [THz] =     307.006919 [cm-1]
     freq (   66) =       9.204218 [THz] =     307.019658 [cm-1]
     freq (   67) =       9.321996 [THz] =     310.948303 [cm-1]
     freq (   68) =       9.325088 [THz] =     311.051460 [cm-1]
     freq (   69) =       9.709774 [THz] =     323.883212 [cm-1]
     freq (   70) =       9.709775 [THz] =     323.883223 [cm-1]
     freq (   71) =       9.759856 [THz] =     325.553747 [cm-1]
     freq (   72) =       9.761019 [THz] =     325.592543 [cm-1]
     freq (   73) =       9.963944 [THz] =     332.361408 [cm-1]
     freq (   74) =       9.965053 [THz] =     332.398388 [cm-1]
     freq (   75) =      10.026270 [THz] =     334.440355 [cm-1]
     freq (   76) =      10.027372 [THz] =     334.477135 [cm-1]
     freq (   77) =      10.289092 [THz] =     343.207156 [cm-1]
     freq (   78) =      10.290164 [THz] =     343.242929 [cm-1]
     freq (   79) =      13.039484 [THz] =     434.950378 [cm-1]
     freq (   80) =      13.080738 [THz] =     436.326456 [cm-1]
     freq (   81) =      13.082367 [THz] =     436.380803 [cm-1]
     freq (   82) =      13.086009 [THz] =     436.502284 [cm-1]
     freq (   83) =      13.269568 [THz] =     442.625146 [cm-1]
     freq (   84) =      13.271197 [THz] =     442.679479 [cm-1]
     freq (   85) =      13.965674 [THz] =     465.844736 [cm-1]
     freq (   86) =      14.045563 [THz] =     468.509542 [cm-1]
     freq (   87) =      14.045957 [THz] =     468.522686 [cm-1]
     freq (   88) =      14.324203 [THz] =     477.803966 [cm-1]
     freq (   89) =      14.324353 [THz] =     477.808995 [cm-1]
     freq (   90) =      14.340005 [THz] =     478.331072 [cm-1]
     freq (   91) =      14.341424 [THz] =     478.378426 [cm-1]
     freq (   92) =      14.485299 [THz] =     483.177565 [cm-1]
     freq (   93) =      14.485381 [THz] =     483.180288 [cm-1]
     freq (   94) =      14.560560 [THz] =     485.687998 [cm-1]
     freq (   95) =      14.561341 [THz] =     485.714040 [cm-1]
     freq (   96) =      14.627412 [THz] =     487.917937 [cm-1]
     freq (   97) =      15.259490 [THz] =     509.001810 [cm-1]
     freq (   98) =      15.636675 [THz] =     521.583319 [cm-1]
     freq (   99) =      15.643832 [THz] =     521.822060 [cm-1]
     freq (  100) =      15.644419 [THz] =     521.841652 [cm-1]
     freq (  101) =      15.696189 [THz] =     523.568523 [cm-1]
     freq (  102) =      15.697358 [THz] =     523.607489 [cm-1]
     freq (  103) =      15.750979 [THz] =     525.396113 [cm-1]
     freq (  104) =      15.751272 [THz] =     525.405875 [cm-1]
     freq (  105) =      16.163748 [THz] =     539.164589 [cm-1]
     freq (  106) =      16.164143 [THz] =     539.177786 [cm-1]
     freq (  107) =      16.239068 [THz] =     541.677005 [cm-1]
     freq (  108) =      16.298146 [THz] =     543.647635 [cm-1]
     freq (  109) =      16.298230 [THz] =     543.650451 [cm-1]
     freq (  110) =      16.340534 [THz] =     545.061543 [cm-1]
     freq (  111) =      16.379813 [THz] =     546.371760 [cm-1]
     freq (  112) =      16.380596 [THz] =     546.397859 [cm-1]
     freq (  113) =      16.548191 [THz] =     551.988223 [cm-1]
     freq (  114) =      23.061918 [THz] =     769.262766 [cm-1]
     freq (  115) =      23.062398 [THz] =     769.278782 [cm-1]
     freq (  116) =      23.068641 [THz] =     769.487039 [cm-1]
     freq (  117) =      24.475351 [THz] =     816.409824 [cm-1]
     freq (  118) =      24.519720 [THz] =     817.889814 [cm-1]
     freq (  119) =      24.519965 [THz] =     817.897981 [cm-1]
     freq (  120) =      25.512509 [THz] =     851.005685 [cm-1]
 **************************************************************************

     Mode symmetry, C_1 (1)     point group:

     freq (  1 -  1) =        -12.6  [cm-1]   --> A               I+R
     freq (  2 -  2) =        -12.5  [cm-1]   --> A               I+R
     freq (  3 -  3) =        -11.7  [cm-1]   --> A               I+R
     freq (  4 -  4) =         40.7  [cm-1]   --> A               I+R
     freq (  5 -  5) =         41.2  [cm-1]   --> A               I+R
     freq (  6 -  6) =         56.2  [cm-1]   --> A               I+R
     freq (  7 -  7) =         56.3  [cm-1]   --> A               I+R
     freq (  8 -  8) =         90.1  [cm-1]   --> A               I+R
     freq (  9 -  9) =         90.3  [cm-1]   --> A               I+R
     freq ( 10 - 10) =        100.0  [cm-1]   --> A               I+R
     freq ( 11 - 11) =        100.0  [cm-1]   --> A               I+R
     freq ( 12 - 12) =        102.0  [cm-1]   --> A               I+R
     freq ( 13 - 13) =        102.6  [cm-1]   --> A               I+R
     freq ( 14 - 14) =        102.6  [cm-1]   --> A               I+R
     freq ( 15 - 15) =        110.0  [cm-1]   --> A               I+R
     freq ( 16 - 16) =        111.7  [cm-1]   --> A               I+R
     freq ( 17 - 17) =        111.8  [cm-1]   --> A               I+R
     freq ( 18 - 18) =        113.7  [cm-1]   --> A               I+R
     freq ( 19 - 19) =        116.3  [cm-1]   --> A               I+R
     freq ( 20 - 20) =        116.3  [cm-1]   --> A               I+R
     freq ( 21 - 21) =        123.0  [cm-1]   --> A               I+R
     freq ( 22 - 22) =        123.0  [cm-1]   --> A               I+R
     freq ( 23 - 23) =        124.1  [cm-1]   --> A               I+R
     freq ( 24 - 24) =        124.2  [cm-1]   --> A               I+R
     freq ( 25 - 25) =        129.6  [cm-1]   --> A               I+R
     freq ( 26 - 26) =        130.9  [cm-1]   --> A               I+R
     freq ( 27 - 27) =        130.9  [cm-1]   --> A               I+R
     freq ( 28 - 28) =        135.9  [cm-1]   --> A               I+R
     freq ( 29 - 29) =        136.0  [cm-1]   --> A               I+R
     freq ( 30 - 30) =        137.5  [cm-1]   --> A               I+R
     freq ( 31 - 31) =        137.5  [cm-1]   --> A               I+R
     freq ( 32 - 32) =        137.5  [cm-1]   --> A               I+R
     freq ( 33 - 33) =        137.7  [cm-1]   --> A               I+R
     freq ( 34 - 34) =        145.6  [cm-1]   --> A               I+R
     freq ( 35 - 35) =        145.6  [cm-1]   --> A               I+R
     freq ( 36 - 36) =        146.9  [cm-1]   --> A               I+R
     freq ( 37 - 37) =        146.9  [cm-1]   --> A               I+R
     freq ( 38 - 38) =        153.9  [cm-1]   --> A               I+R
     freq ( 39 - 39) =        157.1  [cm-1]   --> A               I+R
     freq ( 40 - 40) =        170.7  [cm-1]   --> A               I+R
     freq ( 41 - 41) =        170.7  [cm-1]   --> A               I+R
     freq ( 42 - 42) =        175.4  [cm-1]   --> A               I+R
     freq ( 43 - 43) =        175.4  [cm-1]   --> A               I+R
     freq ( 44 - 44) =        183.9  [cm-1]   --> A               I+R
     freq ( 45 - 45) =        183.9  [cm-1]   --> A               I+R
     freq ( 46 - 46) =        184.5  [cm-1]   --> A               I+R
     freq ( 47 - 47) =        193.6  [cm-1]   --> A               I+R
     freq ( 48 - 48) =        193.6  [cm-1]   --> A               I+R
     freq ( 49 - 49) =        204.3  [cm-1]   --> A               I+R
     freq ( 50 - 50) =        204.3  [cm-1]   --> A               I+R
     freq ( 51 - 51) =        204.4  [cm-1]   --> A               I+R
     freq ( 52 - 52) =        246.4  [cm-1]   --> A               I+R
     freq ( 53 - 53) =        246.5  [cm-1]   --> A               I+R
     freq ( 54 - 54) =        260.3  [cm-1]   --> A               I+R
     freq ( 55 - 55) =        260.4  [cm-1]   --> A               I+R
     freq ( 56 - 56) =        263.1  [cm-1]   --> A               I+R
     freq ( 57 - 57) =        269.6  [cm-1]   --> A               I+R
     freq ( 58 - 58) =        269.7  [cm-1]   --> A               I+R
     freq ( 59 - 59) =        281.2  [cm-1]   --> A               I+R
     freq ( 60 - 60) =        281.2  [cm-1]   --> A               I+R
     freq ( 61 - 61) =        296.5  [cm-1]   --> A               I+R
     freq ( 62 - 62) =        296.5  [cm-1]   --> A               I+R
     freq ( 63 - 63) =        296.5  [cm-1]   --> A               I+R
     freq ( 64 - 64) =        298.4  [cm-1]   --> A               I+R
     freq ( 65 - 65) =        307.0  [cm-1]   --> A               I+R
     freq ( 66 - 66) =        307.0  [cm-1]   --> A               I+R
     freq ( 67 - 67) =        310.9  [cm-1]   --> A               I+R
     freq ( 68 - 68) =        311.1  [cm-1]   --> A               I+R
     freq ( 69 - 69) =        323.9  [cm-1]   --> A               I+R
     freq ( 70 - 70) =        323.9  [cm-1]   --> A               I+R
     freq ( 71 - 71) =        325.6  [cm-1]   --> A               I+R
     freq ( 72 - 72) =        325.6  [cm-1]   --> A               I+R
     freq ( 73 - 73) =        332.4  [cm-1]   --> A               I+R
     freq ( 74 - 74) =        332.4  [cm-1]   --> A               I+R
     freq ( 75 - 75) =        334.4  [cm-1]   --> A               I+R
     freq ( 76 - 76) =        334.5  [cm-1]   --> A               I+R
     freq ( 77 - 77) =        343.2  [cm-1]   --> A               I+R
     freq ( 78 - 78) =        343.2  [cm-1]   --> A               I+R
     freq ( 79 - 79) =        435.0  [cm-1]   --> A               I+R
     freq ( 80 - 80) =        436.3  [cm-1]   --> A               I+R
     freq ( 81 - 81) =        436.4  [cm-1]   --> A               I+R
     freq ( 82 - 82) =        436.5  [cm-1]   --> A               I+R
     freq ( 83 - 83) =        442.6  [cm-1]   --> A               I+R
     freq ( 84 - 84) =        442.7  [cm-1]   --> A               I+R
     freq ( 85 - 85) =        465.8  [cm-1]   --> A               I+R
     freq ( 86 - 86) =        468.5  [cm-1]   --> A               I+R
     freq ( 87 - 87) =        468.5  [cm-1]   --> A               I+R
     freq ( 88 - 88) =        477.8  [cm-1]   --> A               I+R
     freq ( 89 - 89) =        477.8  [cm-1]   --> A               I+R
     freq ( 90 - 90) =        478.3  [cm-1]   --> A               I+R
     freq ( 91 - 91) =        478.4  [cm-1]   --> A               I+R
     freq ( 92 - 92) =        483.2  [cm-1]   --> A               I+R
     freq ( 93 - 93) =        483.2  [cm-1]   --> A               I+R
     freq ( 94 - 94) =        485.7  [cm-1]   --> A               I+R
     freq ( 95 - 95) =        485.7  [cm-1]   --> A               I+R
     freq ( 96 - 96) =        487.9  [cm-1]   --> A               I+R
     freq ( 97 - 97) =        509.0  [cm-1]   --> A               I+R
     freq ( 98 - 98) =        521.6  [cm-1]   --> A               I+R
     freq ( 99 - 99) =        521.8  [cm-1]   --> A               I+R
     freq (100 -100) =        521.8  [cm-1]   --> A               I+R
     freq (101 -101) =        523.6  [cm-1]   --> A               I+R
     freq (102 -102) =        523.6  [cm-1]   --> A               I+R
     freq (103 -103) =        525.4  [cm-1]   --> A               I+R
     freq (104 -104) =        525.4  [cm-1]   --> A               I+R
     freq (105 -105) =        539.2  [cm-1]   --> A               I+R
     freq (106 -106) =        539.2  [cm-1]   --> A               I+R
     freq (107 -107) =        541.7  [cm-1]   --> A               I+R
     freq (108 -108) =        543.6  [cm-1]   --> A               I+R
     freq (109 -109) =        543.7  [cm-1]   --> A               I+R
     freq (110 -110) =        545.1  [cm-1]   --> A               I+R
     freq (111 -111) =        546.4  [cm-1]   --> A               I+R
     freq (112 -112) =        546.4  [cm-1]   --> A               I+R
     freq (113 -113) =        552.0  [cm-1]   --> A               I+R
     freq (114 -114) =        769.3  [cm-1]   --> A               I+R
     freq (115 -115) =        769.3  [cm-1]   --> A               I+R
     freq (116 -116) =        769.5  [cm-1]   --> A               I+R
     freq (117 -117) =        816.4  [cm-1]   --> A               I+R
     freq (118 -118) =        817.9  [cm-1]   --> A               I+R
     freq (119 -119) =        817.9  [cm-1]   --> A               I+R
     freq (120 -120) =        851.0  [cm-1]   --> A               I+R
 
     PHONON       :      4h 6m CPU      6h26m WALL

     INITIALIZATION: 
     phq_setup    :      0.77s CPU      1.65s WALL (       1 calls)
     phq_init     :      0.50s CPU      0.52s WALL (       1 calls)
 
     phq_init     :      0.50s CPU      0.52s WALL (       1 calls)
     init_vloc    :      0.40s CPU      0.41s WALL (       1 calls)
     init_us_1    :      0.05s CPU      0.06s WALL (       1 calls)
 
     DIELECTRIC CONSTANT AND EFFECTIVE CHARGES:
 
     RAMAN COEFFICIENTS, THIRD-ORDER CHI:
 
     DYNAMICAL MATRIX:
     phqscf       :  14793.51s CPU  23100.53s WALL (       1 calls)
     dynmatrix    :      1.30s CPU     29.95s WALL (       1 calls)
 
     phqscf       :  14793.51s CPU  23100.53s WALL (       1 calls)
     solve_linter :  14662.76s CPU  22766.41s WALL (      83 calls)
     drhodv       :     39.96s CPU     41.49s WALL (      83 calls)
     add_zstar_ue :     67.69s CPU     73.87s WALL (      83 calls)
 
 
 
     phqscf       :  14793.51s CPU  23100.53s WALL (       1 calls)
     solve_linter :  14662.76s CPU  22766.41s WALL (      83 calls)
 
     solve_linter :  14662.76s CPU  22766.41s WALL (      83 calls)
     dvqpsi_us    :     38.32s CPU     40.37s WALL (      83 calls)
     ortho        :     22.51s CPU     22.81s WALL (    1093 calls)
     cgsolve      :  10217.32s CPU  10855.12s WALL (    1093 calls)
     incdrhoscf   :    480.62s CPU    512.03s WALL (    1090 calls)
     vpsifft      :    431.38s CPU    462.68s WALL (    1007 calls)
     dv_of_drho   :     10.46s CPU     11.11s WALL (    1090 calls)
     mix_pot      :     99.10s CPU   5640.41s WALL (    1090 calls)
     psymdvscf    :    293.47s CPU    332.80s WALL (    1090 calls)
 
     dvqpsi_us    :     38.32s CPU     40.37s WALL (      83 calls)
     dvqpsi_us_on :      3.38s CPU      3.39s WALL (      83 calls)
 
     cgsolve      :  10217.32s CPU  10855.12s WALL (    1093 calls)
     ch_psi       :  10051.61s CPU  10682.68s WALL (   35771 calls)
 
     ch_psi       :  10051.61s CPU  10682.68s WALL (   35771 calls)
     h_psi        :   9140.04s CPU   9696.04s WALL (   35771 calls)
     last         :    861.16s CPU    874.73s WALL (   35771 calls)
 
     h_psi        :   9140.04s CPU   9696.04s WALL (   35771 calls)
     add_vuspsi   :    310.54s CPU    312.83s WALL (   35771 calls)
 
     incdrhoscf   :    480.62s CPU    512.03s WALL (    1090 calls)
 
 
      General routines
     calbec       :    580.32s CPU    586.13s WALL (   71881 calls)
     fft          :      9.53s CPU     10.15s WALL (    3274 calls)
     ffts         :     26.38s CPU     27.47s WALL (   10043 calls)
     fftw         :   8419.84s CPU   8942.59s WALL ( 7238392 calls)
     davcio       :      6.05s CPU     36.67s WALL (   15035 calls)
     write_rec    :     22.31s CPU   1979.19s WALL (    1173 calls)
 
 
     PHONON       :      4h 6m CPU      6h26m WALL

 
   This run was terminated on:  15:25:13  18Mar2019            

=------------------------------------------------------------------------------=
   JOB DONE.
=------------------------------------------------------------------------------=
